 This job is assigned to node10
 Entering Gaussian System, Link 0=g09
 Initial command:
 /opt/g09/g09/l1.exe "/s1/shixf21/Gau-94987.inp" -scrdir="/s1/shixf21/"
 Entering Link 1 = /opt/g09/g09/l1.exe PID=     94988.
  
 Copyright (c) 1988,1990,1992,1993,1995,1998,2003,2009,2013,
            Gaussian, Inc.  All Rights Reserved.
  
 This is part of the Gaussian(R) 09 program.  It is based on
 the Gaussian(R) 03 system (copyright 2003, Gaussian, Inc.),
 the Gaussian(R) 98 system (copyright 1998, Gaussian, Inc.),
 the Gaussian(R) 94 system (copyright 1995, Gaussian, Inc.),
 the Gaussian 92(TM) system (copyright 1992, Gaussian, Inc.),
 the Gaussian 90(TM) system (copyright 1990, Gaussian, Inc.),
 the Gaussian 88(TM) system (copyright 1988, Gaussian, Inc.),
 the Gaussian 86(TM) system (copyright 1986, Carnegie Mellon
 University), and the Gaussian 82(TM) system (copyright 1983,
 Carnegie Mellon University). Gaussian is a federally registered
 trademark of Gaussian, Inc.
  
 This software contains proprietary and confidential information,
 including trade secrets, belonging to Gaussian, Inc.
  
 This software is provided under written license and may be
 used, copied, transmitted, or stored only in accord with that
 written license.
  
 The following legend is applicable only to US Government
 contracts under FAR:
  
                    RESTRICTED RIGHTS LEGEND
  
 Use, reproduction and disclosure by the US Government is
 subject to restrictions as set forth in subparagraphs (a)
 and (c) of the Commercial Computer Software - Restricted
 Rights clause in FAR 52.227-19.
  
 Gaussian, Inc.
 340 Quinnipiac St., Bldg. 40, Wallingford CT 06492
  
  
 ---------------------------------------------------------------
 Warning -- This program may not be used in any manner that
 competes with the business of Gaussian, Inc. or will provide
 assistance to any competitor of Gaussian, Inc.  The licensee
 of this program is prohibited from giving any competitor of
 Gaussian, Inc. access to this program.  By using this program,
 the user acknowledges that Gaussian, Inc. is engaged in the
 business of creating and licensing software in the field of
 computational chemistry and represents and warrants to the
 licensee that it is not a competitor of Gaussian, Inc. and that
 it will not use this program in any manner prohibited above.
 ---------------------------------------------------------------
  

 Cite this work as:
 Gaussian 09, Revision D.01,
 M. J. Frisch, G. W. Trucks, H. B. Schlegel, G. E. Scuseria, 
 M. A. Robb, J. R. Cheeseman, G. Scalmani, V. Barone, B. Mennucci, 
 G. A. Petersson, H. Nakatsuji, M. Caricato, X. Li, H. P. Hratchian, 
 A. F. Izmaylov, J. Bloino, G. Zheng, J. L. Sonnenberg, M. Hada, 
 M. Ehara, K. Toyota, R. Fukuda, J. Hasegawa, M. Ishida, T. Nakajima, 
 Y. Honda, O. Kitao, H. Nakai, T. Vreven, J. A. Montgomery, Jr., 
 J. E. Peralta, F. Ogliaro, M. Bearpark, J. J. Heyd, E. Brothers, 
 K. N. Kudin, V. N. Staroverov, T. Keith, R. Kobayashi, J. Normand, 
 K. Raghavachari, A. Rendell, J. C. Burant, S. S. Iyengar, J. Tomasi, 
 M. Cossi, N. Rega, J. M. Millam, M. Klene, J. E. Knox, J. B. Cross, 
 V. Bakken, C. Adamo, J. Jaramillo, R. Gomperts, R. E. Stratmann, 
 O. Yazyev, A. J. Austin, R. Cammi, C. Pomelli, J. W. Ochterski, 
 R. L. Martin, K. Morokuma, V. G. Zakrzewski, G. A. Voth, 
 P. Salvador, J. J. Dannenberg, S. Dapprich, A. D. Daniels, 
 O. Farkas, J. B. Foresman, J. V. Ortiz, J. Cioslowski, 
 and D. J. Fox, Gaussian, Inc., Wallingford CT, 2013.
 
 ******************************************
 Gaussian 09:  ES64L-G09RevD.01 24-Apr-2013
                12-Aug-2022 
 ******************************************
 %nproc=12
 Will use up to   12 processors via shared memory.
 %mem=30gb
 %chk=CH3-CH3.chk
 ------------------------------------------
 # opt freq b3lyp/6-31g(d) pop=full gfinput
 ------------------------------------------
 1/14=-1,18=20,19=15,26=3,38=1/1,3;
 2/9=110,12=2,17=6,18=5,40=1/2;
 3/5=1,6=6,7=1,11=2,16=1,24=10,25=1,30=1,71=1,74=-5/1,2,3;
 4//1;
 5/5=2,38=5/2;
 6/7=3,28=1/1;
 7//1,2,3,16;
 1/14=-1,18=20,19=15,26=3/3(2);
 2/9=110/2;
 99//99;
 2/9=110/2;
 3/5=1,6=6,7=1,11=2,16=1,25=1,30=1,71=1,74=-5/1,2,3;
 4/5=5,16=3,69=1/1;
 5/5=2,38=5/2;
 7//1,2,3,16;
 1/14=-1,18=20,19=15,26=3/3(-5);
 2/9=110/2;
 6/7=3,19=2,28=1/1;
 99/9=1/99;
 -------------------
 Title Card Required
 -------------------
 Symbolic Z-matrix:
 Charge =  0 Multiplicity = 1
 C                     0.        0.       -0.77 
 H                     0.        1.00881  -1.12667 
 H                    -0.87365  -0.5044   -1.12667 
 H                     0.87365  -0.5044   -1.12667 
 C                     0.        0.        0.77 
 H                    -0.87365   0.5044    1.12667 
 H                     0.       -1.00881   1.12667 
 H                     0.87365   0.5044    1.12667 
 

 GradGradGradGradGradGradGradGradGradGradGradGradGradGradGradGradGradGrad
 Berny optimization.
 Initialization pass.
                           ----------------------------
                           !    Initial Parameters    !
                           ! (Angstroms and Degrees)  !
 --------------------------                            --------------------------
 ! Name  Definition              Value          Derivative Info.                !
 --------------------------------------------------------------------------------
 ! R1    R(1,2)                  1.07           estimate D2E/DX2                !
 ! R2    R(1,3)                  1.07           estimate D2E/DX2                !
 ! R3    R(1,4)                  1.07           estimate D2E/DX2                !
 ! R4    R(1,5)                  1.54           estimate D2E/DX2                !
 ! R5    R(5,6)                  1.07           estimate D2E/DX2                !
 ! R6    R(5,7)                  1.07           estimate D2E/DX2                !
 ! R7    R(5,8)                  1.07           estimate D2E/DX2                !
 ! A1    A(2,1,3)              109.4712         estimate D2E/DX2                !
 ! A2    A(2,1,4)              109.4712         estimate D2E/DX2                !
 ! A3    A(2,1,5)              109.4712         estimate D2E/DX2                !
 ! A4    A(3,1,4)              109.4712         estimate D2E/DX2                !
 ! A5    A(3,1,5)              109.4712         estimate D2E/DX2                !
 ! A6    A(4,1,5)              109.4712         estimate D2E/DX2                !
 ! A7    A(1,5,6)              109.4712         estimate D2E/DX2                !
 ! A8    A(1,5,7)              109.4712         estimate D2E/DX2                !
 ! A9    A(1,5,8)              109.4712         estimate D2E/DX2                !
 ! A10   A(6,5,7)              109.4712         estimate D2E/DX2                !
 ! A11   A(6,5,8)              109.4712         estimate D2E/DX2                !
 ! A12   A(7,5,8)              109.4712         estimate D2E/DX2                !
 ! D1    D(2,1,5,6)             60.0            estimate D2E/DX2                !
 ! D2    D(2,1,5,7)            180.0            estimate D2E/DX2                !
 ! D3    D(2,1,5,8)            -60.0            estimate D2E/DX2                !
 ! D4    D(3,1,5,6)            -60.0            estimate D2E/DX2                !
 ! D5    D(3,1,5,7)             60.0            estimate D2E/DX2                !
 ! D6    D(3,1,5,8)            180.0            estimate D2E/DX2                !
 ! D7    D(4,1,5,6)            180.0            estimate D2E/DX2                !
 ! D8    D(4,1,5,7)            -60.0            estimate D2E/DX2                !
 ! D9    D(4,1,5,8)             60.0            estimate D2E/DX2                !
 --------------------------------------------------------------------------------
 Trust Radius=3.00D-01 FncErr=1.00D-07 GrdErr=1.00D-06
 Number of steps in this run=     38 maximum allowed number of steps=    100.
 GradGradGradGradGradGradGradGradGradGradGradGradGradGradGradGradGradGrad

                          Input orientation:                          
 ---------------------------------------------------------------------
 Center     Atomic      Atomic             Coordinates (Angstroms)
 Number     Number       Type             X           Y           Z
 ---------------------------------------------------------------------
      1          6           0        0.000000    0.000000   -0.770000
      2          1           0        0.000000    1.008806   -1.126667
      3          1           0       -0.873651   -0.504403   -1.126667
      4          1           0        0.873651   -0.504403   -1.126667
      5          6           0        0.000000    0.000000    0.770000
      6          1           0       -0.873651    0.504403    1.126667
      7          1           0        0.000000   -1.008806    1.126667
      8          1           0        0.873651    0.504403    1.126667
 ---------------------------------------------------------------------
                    Distance matrix (angstroms):
                    1          2          3          4          5
     1  C    0.000000
     2  H    1.070000   0.000000
     3  H    1.070000   1.747303   0.000000
     4  H    1.070000   1.747303   1.747303   0.000000
     5  C    1.540000   2.148263   2.148263   2.148263   0.000000
     6  H    2.148263   2.468846   2.468846   3.024610   1.070000
     7  H    2.148263   3.024610   2.468846   2.468846   1.070000
     8  H    2.148263   2.468846   3.024610   2.468846   1.070000
                    6          7          8
     6  H    0.000000
     7  H    1.747303   0.000000
     8  H    1.747303   1.747303   0.000000
 Stoichiometry    C2H6
 Framework group  D3D[C3(C.C),3SGD(H2)]
 Deg. of freedom     3
 Full point group                 D3D     NOp  12
 Largest Abelian subgroup         C2H     NOp   4
 Largest concise Abelian subgroup C2H     NOp   4
                         Standard orientation:                         
 ---------------------------------------------------------------------
 Center     Atomic      Atomic             Coordinates (Angstroms)
 Number     Number       Type             X           Y           Z
 ---------------------------------------------------------------------
      1          6           0        0.000000    0.000000    0.770000
      2          1           0        0.000000    1.008806    1.126667
      3          1           0        0.873651   -0.504403    1.126667
      4          1           0       -0.873651   -0.504403    1.126667
      5          6           0        0.000000    0.000000   -0.770000
      6          1           0        0.873651    0.504403   -1.126667
      7          1           0        0.000000   -1.008806   -1.126667
      8          1           0       -0.873651    0.504403   -1.126667
 ---------------------------------------------------------------------
 Rotational constants (GHZ):     82.1231829     20.2293845     20.2293845
 Standard basis: 6-31G(d) (6D, 7F)
 AO basis set in the form of general basis input (Overlap normalization):
      1 0
 S   6 1.00       0.000000000000
      0.3047524880D+04  0.1834737132D-02
      0.4573695180D+03  0.1403732281D-01
      0.1039486850D+03  0.6884262226D-01
      0.2921015530D+02  0.2321844432D+00
      0.9286662960D+01  0.4679413484D+00
      0.3163926960D+01  0.3623119853D+00
 SP   3 1.00       0.000000000000
      0.7868272350D+01 -0.1193324198D+00  0.6899906659D-01
      0.1881288540D+01 -0.1608541517D+00  0.3164239610D+00
      0.5442492580D+00  0.1143456438D+01  0.7443082909D+00
 SP   1 1.00       0.000000000000
      0.1687144782D+00  0.1000000000D+01  0.1000000000D+01
 D   1 1.00       0.000000000000
      0.8000000000D+00  0.1000000000D+01
 ****
      2 0
 S   3 1.00       0.000000000000
      0.1873113696D+02  0.3349460434D-01
      0.2825394365D+01  0.2347269535D+00
      0.6401216923D+00  0.8137573261D+00
 S   1 1.00       0.000000000000
      0.1612777588D+00  0.1000000000D+01
 ****
      3 0
 S   3 1.00       0.000000000000
      0.1873113696D+02  0.3349460434D-01
      0.2825394365D+01  0.2347269535D+00
      0.6401216923D+00  0.8137573261D+00
 S   1 1.00       0.000000000000
      0.1612777588D+00  0.1000000000D+01
 ****
      4 0
 S   3 1.00       0.000000000000
      0.1873113696D+02  0.3349460434D-01
      0.2825394365D+01  0.2347269535D+00
      0.6401216923D+00  0.8137573261D+00
 S   1 1.00       0.000000000000
      0.1612777588D+00  0.1000000000D+01
 ****
      5 0
 S   6 1.00       0.000000000000
      0.3047524880D+04  0.1834737132D-02
      0.4573695180D+03  0.1403732281D-01
      0.1039486850D+03  0.6884262226D-01
      0.2921015530D+02  0.2321844432D+00
      0.9286662960D+01  0.4679413484D+00
      0.3163926960D+01  0.3623119853D+00
 SP   3 1.00       0.000000000000
      0.7868272350D+01 -0.1193324198D+00  0.6899906659D-01
      0.1881288540D+01 -0.1608541517D+00  0.3164239610D+00
      0.5442492580D+00  0.1143456438D+01  0.7443082909D+00
 SP   1 1.00       0.000000000000
      0.1687144782D+00  0.1000000000D+01  0.1000000000D+01
 D   1 1.00       0.000000000000
      0.8000000000D+00  0.1000000000D+01
 ****
      6 0
 S   3 1.00       0.000000000000
      0.1873113696D+02  0.3349460434D-01
      0.2825394365D+01  0.2347269535D+00
      0.6401216923D+00  0.8137573261D+00
 S   1 1.00       0.000000000000
      0.1612777588D+00  0.1000000000D+01
 ****
      7 0
 S   3 1.00       0.000000000000
      0.1873113696D+02  0.3349460434D-01
      0.2825394365D+01  0.2347269535D+00
      0.6401216923D+00  0.8137573261D+00
 S   1 1.00       0.000000000000
      0.1612777588D+00  0.1000000000D+01
 ****
      8 0
 S   3 1.00       0.000000000000
      0.1873113696D+02  0.3349460434D-01
      0.2825394365D+01  0.2347269535D+00
      0.6401216923D+00  0.8137573261D+00
 S   1 1.00       0.000000000000
      0.1612777588D+00  0.1000000000D+01
 ****

 There are    15 symmetry adapted cartesian basis functions of AG  symmetry.
 There are     6 symmetry adapted cartesian basis functions of BG  symmetry.
 There are     6 symmetry adapted cartesian basis functions of AU  symmetry.
 There are    15 symmetry adapted cartesian basis functions of BU  symmetry.
 There are    15 symmetry adapted basis functions of AG  symmetry.
 There are     6 symmetry adapted basis functions of BG  symmetry.
 There are     6 symmetry adapted basis functions of AU  symmetry.
 There are    15 symmetry adapted basis functions of BU  symmetry.
    42 basis functions,    80 primitive gaussians,    42 cartesian basis functions
     9 alpha electrons        9 beta electrons
       nuclear repulsion energy        42.6703216512 Hartrees.
 NAtoms=    8 NActive=    8 NUniq=    2 SFac= 4.00D+00 NAtFMM=   60 NAOKFM=F Big=F
 Integral buffers will be    131072 words long.
 Raffenetti 2 integral format.
 Two-electron integral symmetry is turned on.
 One-electron integrals computed using PRISM.
 NBasis=    42 RedAO= T EigKep=  7.73D-03  NBF=    15     6     6    15
 NBsUse=    42 1.00D-06 EigRej= -1.00D+00 NBFU=    15     6     6    15
 ExpMin= 1.61D-01 ExpMax= 3.05D+03 ExpMxC= 4.57D+02 IAcc=1 IRadAn=         1 AccDes= 0.00D+00
 Harris functional with IExCor=  402 and IRadAn=       1 diagonalized for initial guess.
 HarFok:  IExCor=  402 AccDes= 0.00D+00 IRadAn=         1 IDoV= 1 UseB2=F ITyADJ=14
 ICtDFT=  3500011 ScaDFX=  1.000000  1.000000  1.000000  1.000000
 FoFCou: FMM=F IPFlag=           0 FMFlag=      100000 FMFlg1=           0
         NFxFlg=           0 DoJE=T BraDBF=F KetDBF=T FulRan=T
         wScrn=  0.000000 ICntrl=     500 IOpCl=  0 I1Cent=   200000004 NGrid=           0
         NMat0=    1 NMatS0=      1 NMatT0=    0 NMatD0=    1 NMtDS0=    0 NMtDT0=    0
 Petite list used in FoFCou.
 Initial guess orbital symmetries:
       Occupied  (A1G) (A2U) (A1G) (A2U) (EU) (EU) (A1G) (EG) (EG)
       Virtual   (A1G) (A2U) (EU) (EU) (EG) (EG) (A2U) (A1G) (EU)
                 (EU) (EG) (EG) (A2U) (EU) (EU) (A1G) (EG) (EG)
                 (A2U) (A1G) (EU) (EU) (A2U) (A1G) (EG) (EG) (EU)
                 (EU) (EG) (EG) (A2U) (A1G) (A2U)
 The electronic state of the initial guess is 1-A1G.
 Keep R1 ints in memory in symmetry-blocked form, NReq=1296600.
 Requested convergence on RMS density matrix=1.00D-08 within 128 cycles.
 Requested convergence on MAX density matrix=1.00D-06.
 Requested convergence on             energy=1.00D-06.
 No special actions if energy rises.
 Integral accuracy reduced to 1.0D-05 until final iterations.
 Initial convergence to 1.0D-05 achieved.  Increase integral accuracy.
 SCF Done:  E(RB3LYP) =  -79.8270642058     A.U. after    9 cycles
            NFock=  9  Conv=0.66D-08     -V/T= 2.0082

 **********************************************************************

            Population analysis using the SCF density.

 **********************************************************************

 Orbital symmetries:
       Occupied  (A1G) (A2U) (A1G) (A2U) (EU) (EU) (A1G) (EG) (EG)
       Virtual   (A1G) (A2U) (EU) (EU) (EG) (EG) (A2U) (A1G) (EU)
                 (EU) (EG) (EG) (A2U) (EU) (EU) (A1G) (EG) (EG)
                 (A2U) (A1G) (A2U) (EU) (EU) (A1G) (EG) (EG) (EU)
                 (EU) (EG) (EG) (A2U) (A1G) (A2U)
 The electronic state is 1-A1G.
 Alpha  occ. eigenvalues --  -10.16282 -10.16262  -0.75194  -0.61559  -0.43766
 Alpha  occ. eigenvalues --   -0.43766  -0.35191  -0.34644  -0.34644
 Alpha virt. eigenvalues --    0.10698   0.16637   0.17652   0.17652   0.19262
 Alpha virt. eigenvalues --    0.19262   0.23680   0.51133   0.54381   0.54381
 Alpha virt. eigenvalues --    0.62002   0.62002   0.66777   0.90393   0.90393
 Alpha virt. eigenvalues --    0.92618   0.94445   0.94445   1.01225   1.07871
 Alpha virt. eigenvalues --    1.44682   1.51648   1.51648   1.94397   2.01418
 Alpha virt. eigenvalues --    2.01418   2.31495   2.31495   2.32823   2.32823
 Alpha virt. eigenvalues --    2.59401   4.16208   4.37737
     Molecular Orbital Coefficients:
                           1         2         3         4         5
                       (A1G)--O  (A2U)--O  (A1G)--O  (A2U)--O   (EU)--O
     Eigenvalues --   -10.16282 -10.16262  -0.75194  -0.61559  -0.43766
   1 1   C  1S          0.70199   0.70215  -0.14831  -0.13116   0.00000
   2        2S          0.03533   0.03568   0.28079   0.26021   0.00000
   3        2PX         0.00000   0.00000   0.00000   0.00000   0.00000
   4        2PY         0.00000   0.00000   0.00000   0.00000   0.32014
   5        2PZ         0.00009  -0.00009  -0.05241   0.12786   0.00000
   6        3S         -0.00909  -0.01534   0.23525   0.25110   0.00000
   7        3PX         0.00000   0.00000   0.00000   0.00000   0.00000
   8        3PY         0.00000   0.00000   0.00000   0.00000   0.14153
   9        3PZ        -0.00081   0.00221  -0.00913   0.04568   0.00000
  10        4XX        -0.00654  -0.00639  -0.00072   0.00637  -0.01138
  11        4YY        -0.00654  -0.00639  -0.00072   0.00637   0.01138
  12        4ZZ        -0.00690  -0.00632   0.00382  -0.01660   0.00000
  13        4XY         0.00000   0.00000   0.00000   0.00000   0.00000
  14        4XZ         0.00000   0.00000   0.00000   0.00000   0.00000
  15        4YZ         0.00000   0.00000   0.00000   0.00000   0.00256
  16 2   H  1S         -0.00017   0.00006   0.08831   0.11945   0.17941
  17        2S          0.00203   0.00200   0.01895   0.04425   0.13214
  18 3   H  1S         -0.00017   0.00006   0.08831   0.11945  -0.08970
  19        2S          0.00203   0.00200   0.01895   0.04425  -0.06607
  20 4   H  1S         -0.00017   0.00006   0.08831   0.11945  -0.08970
  21        2S          0.00203   0.00200   0.01895   0.04425  -0.06607
  22 5   C  1S          0.70199  -0.70215  -0.14831   0.13116   0.00000
  23        2S          0.03533  -0.03568   0.28079  -0.26021   0.00000
  24        2PX         0.00000   0.00000   0.00000   0.00000   0.00000
  25        2PY         0.00000   0.00000   0.00000   0.00000   0.32014
  26        2PZ        -0.00009  -0.00009   0.05241   0.12786   0.00000
  27        3S         -0.00909   0.01534   0.23525  -0.25110   0.00000
  28        3PX         0.00000   0.00000   0.00000   0.00000   0.00000
  29        3PY         0.00000   0.00000   0.00000   0.00000   0.14153
  30        3PZ         0.00081   0.00221   0.00913   0.04568   0.00000
  31        4XX        -0.00654   0.00639  -0.00072  -0.00637   0.01138
  32        4YY        -0.00654   0.00639  -0.00072  -0.00637  -0.01138
  33        4ZZ        -0.00690   0.00632   0.00382   0.01660   0.00000
  34        4XY         0.00000   0.00000   0.00000   0.00000   0.00000
  35        4XZ         0.00000   0.00000   0.00000   0.00000   0.00000
  36        4YZ         0.00000   0.00000   0.00000   0.00000  -0.00256
  37 6   H  1S         -0.00017  -0.00006   0.08831  -0.11945   0.08970
  38        2S          0.00203  -0.00200   0.01895  -0.04425   0.06607
  39 7   H  1S         -0.00017  -0.00006   0.08831  -0.11945  -0.17941
  40        2S          0.00203  -0.00200   0.01895  -0.04425  -0.13214
  41 8   H  1S         -0.00017  -0.00006   0.08831  -0.11945   0.08970
  42        2S          0.00203  -0.00200   0.01895  -0.04425   0.06607
                           6         7         8         9        10
                        (EU)--O  (A1G)--O   (EG)--O   (EG)--O  (A1G)--V
     Eigenvalues --    -0.43766  -0.35191  -0.34644  -0.34644   0.10698
   1 1   C  1S          0.00000   0.01680   0.00000   0.00000  -0.09925
   2        2S          0.00000  -0.03891   0.00000   0.00000   0.12276
   3        2PX         0.32014   0.00000   0.00000   0.31960   0.00000
   4        2PY         0.00000   0.00000   0.31960   0.00000   0.00000
   5        2PZ         0.00000   0.41451   0.00000   0.00000   0.11630
   6        3S          0.00000  -0.05300   0.00000   0.00000   1.64462
   7        3PX         0.14153   0.00000   0.00000   0.14839   0.00000
   8        3PY         0.00000   0.00000   0.14839   0.00000   0.00000
   9        3PZ         0.00000   0.20092   0.00000   0.00000   0.46459
  10        4XX         0.00000   0.01040  -0.01502   0.00000  -0.01238
  11        4YY         0.00000   0.01040   0.01502   0.00000  -0.01238
  12        4ZZ         0.00000  -0.01211   0.00000   0.00000   0.00115
  13        4XY        -0.01314   0.00000   0.00000  -0.01735   0.00000
  14        4XZ         0.00256   0.00000   0.00000   0.02091   0.00000
  15        4YZ         0.00000   0.00000   0.02091   0.00000   0.00000
  16 2   H  1S          0.00000   0.07881   0.21662   0.00000  -0.01160
  17        2S          0.00000   0.07927   0.20654   0.00000  -0.79727
  18 3   H  1S          0.15537   0.07881  -0.10831   0.18760  -0.01160
  19        2S          0.11444   0.07927  -0.10327   0.17887  -0.79727
  20 4   H  1S         -0.15537   0.07881  -0.10831  -0.18760  -0.01160
  21        2S         -0.11444   0.07927  -0.10327  -0.17887  -0.79727
  22 5   C  1S          0.00000   0.01680   0.00000   0.00000  -0.09925
  23        2S          0.00000  -0.03891   0.00000   0.00000   0.12276
  24        2PX         0.32014   0.00000   0.00000  -0.31960   0.00000
  25        2PY         0.00000   0.00000  -0.31960   0.00000   0.00000
  26        2PZ         0.00000  -0.41451   0.00000   0.00000  -0.11630
  27        3S          0.00000  -0.05300   0.00000   0.00000   1.64462
  28        3PX         0.14153   0.00000   0.00000  -0.14839   0.00000
  29        3PY         0.00000   0.00000  -0.14839   0.00000   0.00000
  30        3PZ         0.00000  -0.20092   0.00000   0.00000  -0.46459
  31        4XX         0.00000   0.01040  -0.01502   0.00000  -0.01238
  32        4YY         0.00000   0.01040   0.01502   0.00000  -0.01238
  33        4ZZ         0.00000  -0.01211   0.00000   0.00000   0.00115
  34        4XY         0.01314   0.00000   0.00000  -0.01735   0.00000
  35        4XZ        -0.00256   0.00000   0.00000   0.02091   0.00000
  36        4YZ         0.00000   0.00000   0.02091   0.00000   0.00000
  37 6   H  1S          0.15537   0.07881  -0.10831  -0.18760  -0.01160
  38        2S          0.11444   0.07927  -0.10327  -0.17887  -0.79727
  39 7   H  1S          0.00000   0.07881   0.21662   0.00000  -0.01160
  40        2S          0.00000   0.07927   0.20654   0.00000  -0.79727
  41 8   H  1S         -0.15537   0.07881  -0.10831   0.18760  -0.01160
  42        2S         -0.11444   0.07927  -0.10327   0.17887  -0.79727
                          11        12        13        14        15
                       (A2U)--V   (EU)--V   (EU)--V   (EG)--V   (EG)--V
     Eigenvalues --     0.16637   0.17652   0.17652   0.19262   0.19262
   1 1   C  1S         -0.13229   0.00000   0.00000   0.00000   0.00000
   2        2S          0.11644   0.00000   0.00000   0.00000   0.00000
   3        2PX         0.00000   0.00000  -0.29329   0.00000   0.26155
   4        2PY         0.00000  -0.29329   0.00000  -0.26155   0.00000
   5        2PZ         0.01391   0.00000   0.00000   0.00000   0.00000
   6        3S          2.45783   0.00000   0.00000   0.00000   0.00000
   7        3PX         0.00000   0.00000  -0.82050   0.00000   1.30458
   8        3PY         0.00000  -0.82050   0.00000  -1.30458   0.00000
   9        3PZ        -0.36580   0.00000   0.00000   0.00000   0.00000
  10        4XX        -0.00611  -0.00456   0.00000  -0.01411   0.00000
  11        4YY        -0.00611   0.00456   0.00000   0.01411   0.00000
  12        4ZZ        -0.01848   0.00000   0.00000   0.00000   0.00000
  13        4XY         0.00000   0.00000  -0.00527   0.00000   0.01630
  14        4XZ         0.00000   0.00000   0.01813   0.00000   0.01106
  15        4YZ         0.00000   0.01813   0.00000  -0.01106   0.00000
  16 2   H  1S         -0.00921   0.08055   0.00000   0.05396   0.00000
  17        2S         -0.80969   1.27455   0.00000   1.39676   0.00000
  18 3   H  1S         -0.00921  -0.04028   0.06976  -0.02698  -0.04673
  19        2S         -0.80969  -0.63728   1.10380  -0.69838  -1.20963
  20 4   H  1S         -0.00921  -0.04028  -0.06976  -0.02698   0.04673
  21        2S         -0.80969  -0.63728  -1.10380  -0.69838   1.20963
  22 5   C  1S          0.13229   0.00000   0.00000   0.00000   0.00000
  23        2S         -0.11644   0.00000   0.00000   0.00000   0.00000
  24        2PX         0.00000   0.00000  -0.29329   0.00000  -0.26155
  25        2PY         0.00000  -0.29329   0.00000   0.26155   0.00000
  26        2PZ         0.01391   0.00000   0.00000   0.00000   0.00000
  27        3S         -2.45783   0.00000   0.00000   0.00000   0.00000
  28        3PX         0.00000   0.00000  -0.82050   0.00000  -1.30458
  29        3PY         0.00000  -0.82050   0.00000   1.30458   0.00000
  30        3PZ        -0.36580   0.00000   0.00000   0.00000   0.00000
  31        4XX         0.00611   0.00456   0.00000  -0.01411   0.00000
  32        4YY         0.00611  -0.00456   0.00000   0.01411   0.00000
  33        4ZZ         0.01848   0.00000   0.00000   0.00000   0.00000
  34        4XY         0.00000   0.00000   0.00527   0.00000   0.01630
  35        4XZ         0.00000   0.00000  -0.01813   0.00000   0.01106
  36        4YZ         0.00000  -0.01813   0.00000  -0.01106   0.00000
  37 6   H  1S          0.00921   0.04028   0.06976  -0.02698   0.04673
  38        2S          0.80969   0.63728   1.10380  -0.69838   1.20963
  39 7   H  1S          0.00921  -0.08055   0.00000   0.05396   0.00000
  40        2S          0.80969  -1.27455   0.00000   1.39676   0.00000
  41 8   H  1S          0.00921   0.04028  -0.06976  -0.02698  -0.04673
  42        2S          0.80969   0.63728  -1.10380  -0.69838  -1.20963
                          16        17        18        19        20
                       (A2U)--V  (A1G)--V   (EU)--V   (EU)--V   (EG)--V
     Eigenvalues --     0.23680   0.51133   0.54381   0.54381   0.62002
   1 1   C  1S          0.03759   0.00858   0.00000   0.00000   0.00000
   2        2S         -0.03160   0.02038   0.00000   0.00000   0.00000
   3        2PX         0.00000   0.00000   0.00000  -0.42930  -0.65398
   4        2PY         0.00000   0.00000  -0.42930   0.00000   0.00000
   5        2PZ         0.36278  -0.59932   0.00000   0.00000   0.00000
   6        3S         -0.66821   0.38316   0.00000   0.00000   0.00000
   7        3PX         0.00000   0.00000   0.00000   0.81357   1.74304
   8        3PY         0.00000   0.00000   0.81357   0.00000   0.00000
   9        3PZ         1.62621   0.90994   0.00000   0.00000   0.00000
  10        4XX        -0.01269  -0.03483   0.05794   0.00000   0.00000
  11        4YY        -0.01269  -0.03483  -0.05794   0.00000   0.00000
  12        4ZZ         0.02906   0.10618   0.00000   0.00000   0.00000
  13        4XY         0.00000   0.00000   0.00000   0.06691   0.07776
  14        4XZ         0.00000   0.00000   0.00000  -0.05900   0.00139
  15        4YZ         0.00000   0.00000  -0.05900   0.00000   0.00000
  16 2   H  1S         -0.05942  -0.13414  -0.41786   0.00000   0.00000
  17        2S         -0.45862  -0.01680  -0.11387   0.00000   0.00000
  18 3   H  1S         -0.05942  -0.13414   0.20893  -0.36188  -0.20555
  19        2S         -0.45862  -0.01680   0.05694  -0.09862  -0.41509
  20 4   H  1S         -0.05942  -0.13414   0.20893   0.36188   0.20555
  21        2S         -0.45862  -0.01680   0.05694   0.09862   0.41509
  22 5   C  1S         -0.03759   0.00858   0.00000   0.00000   0.00000
  23        2S          0.03160   0.02038   0.00000   0.00000   0.00000
  24        2PX         0.00000   0.00000   0.00000  -0.42930   0.65398
  25        2PY         0.00000   0.00000  -0.42930   0.00000   0.00000
  26        2PZ         0.36278   0.59932   0.00000   0.00000   0.00000
  27        3S          0.66821   0.38316   0.00000   0.00000   0.00000
  28        3PX         0.00000   0.00000   0.00000   0.81357  -1.74304
  29        3PY         0.00000   0.00000   0.81357   0.00000   0.00000
  30        3PZ         1.62621  -0.90994   0.00000   0.00000   0.00000
  31        4XX         0.01269  -0.03483  -0.05794   0.00000   0.00000
  32        4YY         0.01269  -0.03483   0.05794   0.00000   0.00000
  33        4ZZ        -0.02906   0.10618   0.00000   0.00000   0.00000
  34        4XY         0.00000   0.00000   0.00000  -0.06691   0.07776
  35        4XZ         0.00000   0.00000   0.00000   0.05900   0.00139
  36        4YZ         0.00000   0.00000   0.05900   0.00000   0.00000
  37 6   H  1S          0.05942  -0.13414  -0.20893  -0.36188   0.20555
  38        2S          0.45862  -0.01680  -0.05694  -0.09862   0.41509
  39 7   H  1S          0.05942  -0.13414   0.41786   0.00000   0.00000
  40        2S          0.45862  -0.01680   0.11387   0.00000   0.00000
  41 8   H  1S          0.05942  -0.13414  -0.20893   0.36188  -0.20555
  42        2S          0.45862  -0.01680  -0.05694   0.09862  -0.41509
                          21        22        23        24        25
                        (EG)--V  (A2U)--V   (EU)--V   (EU)--V  (A1G)--V
     Eigenvalues --     0.62002   0.66777   0.90393   0.90393   0.92618
   1 1   C  1S          0.00000  -0.04715   0.00000   0.00000   0.05438
   2        2S          0.00000   0.29450   0.00000   0.00000  -0.35575
   3        2PX         0.00000   0.00000   0.00000   0.69227   0.00000
   4        2PY        -0.65398   0.00000   0.69227   0.00000   0.00000
   5        2PZ         0.00000  -0.78730   0.00000   0.00000  -0.39673
   6        3S          0.00000  -0.75072   0.00000   0.00000   0.54850
   7        3PX         0.00000   0.00000   0.00000  -1.11077   0.00000
   8        3PY         1.74304   0.00000  -1.11077   0.00000   0.00000
   9        3PZ         0.00000   1.69740   0.00000   0.00000   0.25200
  10        4XX         0.06734   0.03211   0.07926   0.00000   0.03234
  11        4YY        -0.06734   0.03211  -0.07926   0.00000   0.03234
  12        4ZZ         0.00000  -0.07885   0.00000   0.00000  -0.09844
  13        4XY         0.00000   0.00000   0.00000   0.09152   0.00000
  14        4XZ         0.00000   0.00000   0.00000  -0.12208   0.00000
  15        4YZ         0.00139   0.00000  -0.12208   0.00000   0.00000
  16 2   H  1S         -0.23735  -0.11965  -0.50659   0.00000   0.50262
  17        2S         -0.47930  -0.28965   1.31879   0.00000  -0.38850
  18 3   H  1S          0.11868  -0.11965   0.25330  -0.43872   0.50262
  19        2S          0.23965  -0.28965  -0.65939   1.14210  -0.38850
  20 4   H  1S          0.11868  -0.11965   0.25330   0.43872   0.50262
  21        2S          0.23965  -0.28965  -0.65939  -1.14210  -0.38850
  22 5   C  1S          0.00000   0.04715   0.00000   0.00000   0.05438
  23        2S          0.00000  -0.29450   0.00000   0.00000  -0.35575
  24        2PX         0.00000   0.00000   0.00000   0.69227   0.00000
  25        2PY         0.65398   0.00000   0.69227   0.00000   0.00000
  26        2PZ         0.00000  -0.78730   0.00000   0.00000   0.39673
  27        3S          0.00000   0.75072   0.00000   0.00000   0.54850
  28        3PX         0.00000   0.00000   0.00000  -1.11077   0.00000
  29        3PY        -1.74304   0.00000  -1.11077   0.00000   0.00000
  30        3PZ         0.00000   1.69740   0.00000   0.00000  -0.25200
  31        4XX         0.06734  -0.03211  -0.07926   0.00000   0.03234
  32        4YY        -0.06734  -0.03211   0.07926   0.00000   0.03234
  33        4ZZ         0.00000   0.07885   0.00000   0.00000  -0.09844
  34        4XY         0.00000   0.00000   0.00000  -0.09152   0.00000
  35        4XZ         0.00000   0.00000   0.00000   0.12208   0.00000
  36        4YZ         0.00139   0.00000   0.12208   0.00000   0.00000
  37 6   H  1S          0.11868   0.11965  -0.25330  -0.43872   0.50262
  38        2S          0.23965   0.28965   0.65939   1.14210  -0.38850
  39 7   H  1S         -0.23735   0.11965   0.50659   0.00000   0.50262
  40        2S         -0.47930   0.28965  -1.31879   0.00000  -0.38850
  41 8   H  1S          0.11868   0.11965  -0.25330   0.43872   0.50262
  42        2S          0.23965   0.28965   0.65939  -1.14210  -0.38850
                          26        27        28        29        30
                        (EG)--V   (EG)--V  (A2U)--V  (A1G)--V  (A2U)--V
     Eigenvalues --     0.94445   0.94445   1.01225   1.07871   1.44682
   1 1   C  1S          0.00000   0.00000   0.03744  -0.06155  -0.13916
   2        2S          0.00000   0.00000  -1.01681  -1.47514  -1.53059
   3        2PX         0.51573   0.00000   0.00000   0.00000   0.00000
   4        2PY         0.00000   0.51573   0.00000   0.00000   0.00000
   5        2PZ         0.00000   0.00000  -0.30739   0.05406   0.02620
   6        3S          0.00000   0.00000   2.25920   3.28414   5.89730
   7        3PX        -0.55874   0.00000   0.00000   0.00000   0.00000
   8        3PY         0.00000  -0.55874   0.00000   0.00000   0.00000
   9        3PZ         0.00000   0.00000   0.49254   0.44200  -1.57363
  10        4XX         0.00000   0.14651  -0.02131  -0.04820  -0.08219
  11        4YY         0.00000  -0.14651  -0.02131  -0.04820  -0.08219
  12        4ZZ         0.00000   0.00000  -0.06837  -0.15933   0.00484
  13        4XY         0.16918   0.00000   0.00000   0.00000   0.00000
  14        4XZ        -0.03706   0.00000   0.00000   0.00000   0.00000
  15        4YZ         0.00000  -0.03706   0.00000   0.00000   0.00000
  16 2   H  1S          0.00000  -0.65117   0.40166  -0.15489  -0.48215
  17        2S          0.00000   0.98871  -0.86130  -0.82369  -0.46844
  18 3   H  1S         -0.56393   0.32559   0.40166  -0.15489  -0.48215
  19        2S          0.85625  -0.49436  -0.86130  -0.82369  -0.46844
  20 4   H  1S          0.56393   0.32559   0.40166  -0.15489  -0.48215
  21        2S         -0.85625  -0.49436  -0.86130  -0.82369  -0.46844
  22 5   C  1S          0.00000   0.00000  -0.03744  -0.06155   0.13916
  23        2S          0.00000   0.00000   1.01681  -1.47514   1.53059
  24        2PX        -0.51573   0.00000   0.00000   0.00000   0.00000
  25        2PY         0.00000  -0.51573   0.00000   0.00000   0.00000
  26        2PZ         0.00000   0.00000  -0.30739  -0.05406   0.02620
  27        3S          0.00000   0.00000  -2.25920   3.28414  -5.89730
  28        3PX         0.55874   0.00000   0.00000   0.00000   0.00000
  29        3PY         0.00000   0.55874   0.00000   0.00000   0.00000
  30        3PZ         0.00000   0.00000   0.49254  -0.44200  -1.57363
  31        4XX         0.00000   0.14651   0.02131  -0.04820   0.08219
  32        4YY         0.00000  -0.14651   0.02131  -0.04820   0.08219
  33        4ZZ         0.00000   0.00000   0.06837  -0.15933  -0.00484
  34        4XY         0.16918   0.00000   0.00000   0.00000   0.00000
  35        4XZ        -0.03706   0.00000   0.00000   0.00000   0.00000
  36        4YZ         0.00000  -0.03706   0.00000   0.00000   0.00000
  37 6   H  1S          0.56393   0.32559  -0.40166  -0.15489   0.48215
  38        2S         -0.85625  -0.49436   0.86130  -0.82369   0.46844
  39 7   H  1S          0.00000  -0.65117  -0.40166  -0.15489   0.48215
  40        2S          0.00000   0.98871   0.86130  -0.82369   0.46844
  41 8   H  1S         -0.56393   0.32559  -0.40166  -0.15489   0.48215
  42        2S          0.85625  -0.49436   0.86130  -0.82369   0.46844
                          31        32        33        34        35
                        (EU)--V   (EU)--V  (A1G)--V   (EG)--V   (EG)--V
     Eigenvalues --     1.51648   1.51648   1.94397   2.01418   2.01418
   1 1   C  1S          0.00000   0.00000   0.03096   0.00000   0.00000
   2        2S          0.00000   0.00000  -0.39623   0.00000   0.00000
   3        2PX         0.08313   0.00000   0.00000   0.01204   0.00000
   4        2PY         0.00000   0.08313   0.00000   0.00000   0.01204
   5        2PZ         0.00000   0.00000   0.24679   0.00000   0.00000
   6        3S          0.00000   0.00000   0.04892   0.00000   0.00000
   7        3PX         0.12287   0.00000   0.00000   0.79172   0.00000
   8        3PY         0.00000   0.12287   0.00000   0.00000   0.79172
   9        3PZ         0.00000   0.00000  -0.33906   0.00000   0.00000
  10        4XX         0.00000   0.27676  -0.33209   0.00000  -0.52113
  11        4YY         0.00000  -0.27676  -0.33209   0.00000   0.52113
  12        4ZZ         0.00000   0.00000   0.67600   0.00000   0.00000
  13        4XY         0.31957   0.00000   0.00000  -0.60174   0.00000
  14        4XZ         0.58588   0.00000   0.00000  -0.46655   0.00000
  15        4YZ         0.00000   0.58588   0.00000   0.00000  -0.46655
  16 2   H  1S          0.00000  -0.13878   0.22056   0.00000  -0.33406
  17        2S          0.00000  -0.03182  -0.05624   0.00000  -0.22740
  18 3   H  1S         -0.12019   0.06939   0.22056  -0.28930   0.16703
  19        2S         -0.02755   0.01591  -0.05624  -0.19694   0.11370
  20 4   H  1S          0.12019   0.06939   0.22056   0.28930   0.16703
  21        2S          0.02755   0.01591  -0.05624   0.19694   0.11370
  22 5   C  1S          0.00000   0.00000   0.03096   0.00000   0.00000
  23        2S          0.00000   0.00000  -0.39623   0.00000   0.00000
  24        2PX         0.08313   0.00000   0.00000  -0.01204   0.00000
  25        2PY         0.00000   0.08313   0.00000   0.00000  -0.01204
  26        2PZ         0.00000   0.00000  -0.24679   0.00000   0.00000
  27        3S          0.00000   0.00000   0.04892   0.00000   0.00000
  28        3PX         0.12287   0.00000   0.00000  -0.79172   0.00000
  29        3PY         0.00000   0.12287   0.00000   0.00000  -0.79172
  30        3PZ         0.00000   0.00000   0.33906   0.00000   0.00000
  31        4XX         0.00000  -0.27676  -0.33209   0.00000  -0.52113
  32        4YY         0.00000   0.27676  -0.33209   0.00000   0.52113
  33        4ZZ         0.00000   0.00000   0.67600   0.00000   0.00000
  34        4XY        -0.31957   0.00000   0.00000  -0.60174   0.00000
  35        4XZ        -0.58588   0.00000   0.00000  -0.46655   0.00000
  36        4YZ         0.00000  -0.58588   0.00000   0.00000  -0.46655
  37 6   H  1S         -0.12019  -0.06939   0.22056   0.28930   0.16703
  38        2S         -0.02755  -0.01591  -0.05624   0.19694   0.11370
  39 7   H  1S          0.00000   0.13878   0.22056   0.00000  -0.33406
  40        2S          0.00000   0.03182  -0.05624   0.00000  -0.22740
  41 8   H  1S          0.12019  -0.06939   0.22056  -0.28930   0.16703
  42        2S          0.02755  -0.01591  -0.05624  -0.19694   0.11370
                          36        37        38        39        40
                        (EU)--V   (EU)--V   (EG)--V   (EG)--V  (A2U)--V
     Eigenvalues --     2.31495   2.31495   2.32823   2.32823   2.59401
   1 1   C  1S          0.00000   0.00000   0.00000   0.00000  -0.07112
   2        2S          0.00000   0.00000   0.00000   0.00000   0.04173
   3        2PX        -0.14442   0.00000   0.00000   0.08203   0.00000
   4        2PY         0.00000  -0.14442   0.08203   0.00000   0.00000
   5        2PZ         0.00000   0.00000   0.00000   0.00000  -0.36807
   6        3S          0.00000   0.00000   0.00000   0.00000   1.37986
   7        3PX        -0.25371   0.00000   0.00000   0.26228   0.00000
   8        3PY         0.00000  -0.25371   0.26228   0.00000   0.00000
   9        3PZ         0.00000   0.00000   0.00000   0.00000  -0.89625
  10        4XX         0.00000   0.62887  -0.41532   0.00000  -0.55628
  11        4YY         0.00000  -0.62887   0.41532   0.00000  -0.55628
  12        4ZZ         0.00000   0.00000   0.00000   0.00000   0.92457
  13        4XY         0.72615   0.00000   0.00000  -0.47957   0.00000
  14        4XZ        -0.36452   0.00000   0.00000   0.68143   0.00000
  15        4YZ         0.00000  -0.36452   0.68143   0.00000   0.00000
  16 2   H  1S          0.00000   0.57500  -0.51499   0.00000   0.12226
  17        2S          0.00000  -0.07010   0.09853   0.00000  -0.03510
  18 3   H  1S          0.49796  -0.28750   0.25750  -0.44600   0.12226
  19        2S         -0.06071   0.03505  -0.04926   0.08533  -0.03510
  20 4   H  1S         -0.49796  -0.28750   0.25750   0.44600   0.12226
  21        2S          0.06071   0.03505  -0.04926  -0.08533  -0.03510
  22 5   C  1S          0.00000   0.00000   0.00000   0.00000   0.07112
  23        2S          0.00000   0.00000   0.00000   0.00000  -0.04173
  24        2PX        -0.14442   0.00000   0.00000  -0.08203   0.00000
  25        2PY         0.00000  -0.14442  -0.08203   0.00000   0.00000
  26        2PZ         0.00000   0.00000   0.00000   0.00000  -0.36807
  27        3S          0.00000   0.00000   0.00000   0.00000  -1.37986
  28        3PX        -0.25371   0.00000   0.00000  -0.26228   0.00000
  29        3PY         0.00000  -0.25371  -0.26228   0.00000   0.00000
  30        3PZ         0.00000   0.00000   0.00000   0.00000  -0.89625
  31        4XX         0.00000  -0.62887  -0.41532   0.00000   0.55628
  32        4YY         0.00000   0.62887   0.41532   0.00000   0.55628
  33        4ZZ         0.00000   0.00000   0.00000   0.00000  -0.92457
  34        4XY        -0.72615   0.00000   0.00000  -0.47957   0.00000
  35        4XZ         0.36452   0.00000   0.00000   0.68143   0.00000
  36        4YZ         0.00000   0.36452   0.68143   0.00000   0.00000
  37 6   H  1S          0.49796   0.28750   0.25750   0.44600  -0.12226
  38        2S         -0.06071  -0.03505  -0.04926  -0.08533   0.03510
  39 7   H  1S          0.00000  -0.57500  -0.51499   0.00000  -0.12226
  40        2S          0.00000   0.07010   0.09853   0.00000   0.03510
  41 8   H  1S         -0.49796   0.28750   0.25750  -0.44600  -0.12226
  42        2S          0.06071  -0.03505  -0.04926   0.08533   0.03510
                          41        42
                       (A1G)--V  (A2U)--V
     Eigenvalues --     4.16208   4.37737
   1 1   C  1S         -0.35126  -0.35188
   2        2S          2.03367   2.02376
   3        2PX         0.00000   0.00000
   4        2PY         0.00000   0.00000
   5        2PZ        -0.03717   0.10644
   6        3S          1.48465   2.43007
   7        3PX         0.00000   0.00000
   8        3PY         0.00000   0.00000
   9        3PZ         0.12115  -0.21678
  10        4XX        -1.36987  -1.30799
  11        4YY        -1.36987  -1.30799
  12        4ZZ        -1.19040  -1.57621
  13        4XY         0.00000   0.00000
  14        4XZ         0.00000   0.00000
  15        4YZ         0.00000   0.00000
  16 2   H  1S          0.11930   0.05151
  17        2S         -0.38074  -0.39702
  18 3   H  1S          0.11930   0.05151
  19        2S         -0.38074  -0.39702
  20 4   H  1S          0.11930   0.05151
  21        2S         -0.38074  -0.39702
  22 5   C  1S         -0.35126   0.35188
  23        2S          2.03367  -2.02376
  24        2PX         0.00000   0.00000
  25        2PY         0.00000   0.00000
  26        2PZ         0.03717   0.10644
  27        3S          1.48465  -2.43007
  28        3PX         0.00000   0.00000
  29        3PY         0.00000   0.00000
  30        3PZ        -0.12115  -0.21678
  31        4XX        -1.36987   1.30799
  32        4YY        -1.36987   1.30799
  33        4ZZ        -1.19040   1.57621
  34        4XY         0.00000   0.00000
  35        4XZ         0.00000   0.00000
  36        4YZ         0.00000   0.00000
  37 6   H  1S          0.11930  -0.05151
  38        2S         -0.38074   0.39702
  39 7   H  1S          0.11930  -0.05151
  40        2S         -0.38074   0.39702
  41 8   H  1S          0.11930  -0.05151
  42        2S         -0.38074   0.39702
     Density Matrix:
                           1         2         3         4         5
   1 1   C  1S          2.05057
   2        2S         -0.05315   0.30118
   3        2PX         0.00000   0.00000   0.40926
   4        2PY         0.00000   0.00000   0.00000   0.40926
   5        2PZ        -0.00408   0.00485   0.00000   0.00000   0.38182
   6        3S         -0.17174   0.26518   0.00000   0.00000  -0.00438
   7        3PX         0.00000   0.00000   0.18547   0.00000   0.00000
   8        3PY         0.00000   0.00000   0.00000   0.18547   0.00000
   9        3PZ        -0.00056   0.00311   0.00000   0.00000   0.17920
  10        4XX        -0.01927   0.00118   0.00000  -0.01689   0.01032
  11        4YY        -0.01927   0.00118   0.00000   0.01689   0.01032
  12        4ZZ        -0.01576  -0.00649   0.00000   0.00000  -0.01469
  13        4XY         0.00000   0.00000  -0.01950   0.00000   0.00000
  14        4XZ         0.00000   0.00000   0.01501   0.00000   0.00000
  15        4YZ         0.00000   0.00000   0.00000   0.01501   0.00000
  16 2   H  1S         -0.05503   0.10562   0.00000   0.25333   0.08662
  17        2S         -0.00892   0.02779   0.00000   0.21662   0.07505
  18 3   H  1S         -0.05503   0.10562   0.21939  -0.12667   0.08662
  19        2S         -0.00892   0.02779   0.18760  -0.10831   0.07505
  20 4   H  1S         -0.05503   0.10562  -0.21939  -0.12667   0.08662
  21        2S         -0.00892   0.02779  -0.18760  -0.10831   0.07505
  22 5   C  1S          0.00969  -0.01684   0.00000   0.00000   0.06327
  23        2S         -0.01684   0.02525   0.00000   0.00000  -0.12822
  24        2PX         0.00000   0.00000   0.00070   0.00000   0.00000
  25        2PY         0.00000   0.00000   0.00000   0.00070   0.00000
  26        2PZ        -0.06327   0.12822   0.00000   0.00000  -0.31643
  27        3S          0.00308   0.00601   0.00000   0.00000  -0.13281
  28        3PX         0.00000   0.00000  -0.00423   0.00000   0.00000
  29        3PY         0.00000   0.00000   0.00000  -0.00423   0.00000
  30        3PZ        -0.01720   0.04475   0.00000   0.00000  -0.15584
  31        4XX         0.00203  -0.00454   0.00000  -0.00231   0.00706
  32        4YY         0.00203  -0.00454   0.00000   0.00231   0.00706
  33        4ZZ        -0.00670   0.01169   0.00000   0.00000  -0.00620
  34        4XY         0.00000   0.00000  -0.00267   0.00000   0.00000
  35        4XZ         0.00000   0.00000   0.01173   0.00000   0.00000
  36        4YZ         0.00000   0.00000   0.00000   0.01173   0.00000
  37 6   H  1S          0.00746  -0.01872  -0.02043  -0.01180   0.02553
  38        2S          0.00869  -0.01856  -0.04106  -0.02370   0.05241
  39 7   H  1S          0.00746  -0.01872   0.00000   0.02359   0.02553
  40        2S          0.00869  -0.01856   0.00000   0.04741   0.05241
  41 8   H  1S          0.00746  -0.01872   0.02043  -0.01180   0.02553
  42        2S          0.00869  -0.01856   0.04106  -0.02370   0.05241
                           6         7         8         9        10
   6        3S          0.24305
   7        3PX         0.00000   0.08410
   8        3PY         0.00000   0.00000   0.08410
   9        3PZ        -0.00270   0.00000   0.00000   0.08509
  10        4XX         0.00207   0.00000  -0.00768   0.00476   0.00118
  11        4YY         0.00207   0.00000   0.00768   0.00476  -0.00024
  12        4ZZ        -0.00494   0.00000   0.00000  -0.00647  -0.00030
  13        4XY         0.00000  -0.00887   0.00000   0.00000   0.00000
  14        4XZ         0.00000   0.00693   0.00000   0.00000   0.00000
  15        4YZ         0.00000   0.00000   0.00693   0.00000  -0.00069
  16 2   H  1S          0.09319   0.00000   0.11507   0.04097  -0.00756
  17        2S          0.02264   0.00000   0.09870   0.03556  -0.00708
  18 3   H  1S          0.09319   0.09965  -0.05754   0.04097   0.00833
  19        2S          0.02264   0.08548  -0.04935   0.03556   0.00674
  20 4   H  1S          0.09319  -0.09965  -0.05754   0.04097   0.00833
  21        2S          0.02264  -0.08548  -0.04935   0.03556   0.00674
  22 5   C  1S          0.00308   0.00000   0.00000   0.01720   0.00203
  23        2S          0.00601   0.00000   0.00000  -0.04475  -0.00454
  24        2PX         0.00000  -0.00423   0.00000   0.00000   0.00000
  25        2PY         0.00000   0.00000  -0.00423   0.00000   0.00231
  26        2PZ         0.13281   0.00000   0.00000  -0.15584  -0.00706
  27        3S         -0.01011   0.00000   0.00000  -0.04845  -0.00472
  28        3PX         0.00000  -0.00398   0.00000   0.00000   0.00000
  29        3PY         0.00000   0.00000  -0.00398   0.00000   0.00124
  30        3PZ         0.04845   0.00000   0.00000  -0.07672  -0.00365
  31        4XX        -0.00472   0.00000  -0.00124   0.00365   0.00033
  32        4YY        -0.00472   0.00000   0.00124   0.00365  -0.00005
  33        4ZZ         0.01135   0.00000   0.00000  -0.00338  -0.00004
  34        4XY         0.00000  -0.00143   0.00000   0.00000   0.00000
  35        4XZ         0.00000   0.00548   0.00000   0.00000   0.00000
  36        4YZ         0.00000   0.00000   0.00548   0.00000  -0.00057
  37 6   H  1S         -0.02678  -0.01170  -0.00675   0.01914   0.00120
  38        2S         -0.02169  -0.02069  -0.01195   0.02745   0.00265
  39 7   H  1S         -0.02678   0.00000   0.01351   0.01914  -0.00243
  40        2S         -0.02169   0.00000   0.02389   0.02745  -0.00214
  41 8   H  1S         -0.02678   0.01170  -0.00675   0.01914   0.00120
  42        2S         -0.02169   0.02069  -0.01195   0.02745   0.00265
                          11        12        13        14        15
  11        4YY         0.00118
  12        4ZZ        -0.00030   0.00105
  13        4XY         0.00000   0.00000   0.00095
  14        4XZ         0.00000   0.00000  -0.00079   0.00089
  15        4YZ         0.00069   0.00000   0.00000   0.00000   0.00089
  16 2   H  1S          0.01363  -0.00520   0.00000   0.00000   0.00998
  17        2S          0.01135  -0.00330   0.00000   0.00000   0.00932
  18 3   H  1S         -0.00226  -0.00520  -0.01059   0.00864  -0.00499
  19        2S         -0.00247  -0.00330  -0.00921   0.00807  -0.00466
  20 4   H  1S         -0.00226  -0.00520   0.01059  -0.00864  -0.00499
  21        2S         -0.00247  -0.00330   0.00921  -0.00807  -0.00466
  22 5   C  1S          0.00203  -0.00670   0.00000   0.00000   0.00000
  23        2S         -0.00454   0.01169   0.00000   0.00000   0.00000
  24        2PX         0.00000   0.00000   0.00267  -0.01173   0.00000
  25        2PY        -0.00231   0.00000   0.00000   0.00000  -0.01173
  26        2PZ        -0.00706   0.00620   0.00000   0.00000   0.00000
  27        3S         -0.00472   0.01135   0.00000   0.00000   0.00000
  28        3PX         0.00000   0.00000   0.00143  -0.00548   0.00000
  29        3PY        -0.00124   0.00000   0.00000   0.00000  -0.00548
  30        3PZ        -0.00365   0.00338   0.00000   0.00000   0.00000
  31        4XX        -0.00005  -0.00004   0.00000   0.00000  -0.00057
  32        4YY         0.00033  -0.00004   0.00000   0.00000   0.00057
  33        4ZZ        -0.00004  -0.00021   0.00000   0.00000   0.00000
  34        4XY         0.00000   0.00000   0.00026  -0.00066   0.00000
  35        4XZ         0.00000   0.00000  -0.00066   0.00086   0.00000
  36        4YZ         0.00057   0.00000   0.00000   0.00000   0.00086
  37 6   H  1S         -0.00122   0.00273   0.00242  -0.00705  -0.00407
  38        2S         -0.00054  -0.00031   0.00320  -0.00690  -0.00398
  39 7   H  1S          0.00241   0.00273   0.00000   0.00000   0.00814
  40        2S          0.00425  -0.00031   0.00000   0.00000   0.00796
  41 8   H  1S         -0.00122   0.00273  -0.00242   0.00705  -0.00407
  42        2S         -0.00054  -0.00031  -0.00320   0.00690  -0.00398
                          16        17        18        19        20
  16 2   H  1S          0.21478
  17        2S          0.16331   0.13746
  18 3   H  1S         -0.02256  -0.04204   0.21478
  19        2S         -0.04204  -0.04290   0.16331   0.13746
  20 4   H  1S         -0.02256  -0.04204  -0.02256  -0.04204   0.21478
  21        2S         -0.04204  -0.04290  -0.04204  -0.04290   0.16331
  22 5   C  1S          0.00746   0.00869   0.00746   0.00869   0.00746
  23        2S         -0.01872  -0.01856  -0.01872  -0.01856  -0.01872
  24        2PX         0.00000   0.00000  -0.02043  -0.04106   0.02043
  25        2PY        -0.02359  -0.04741   0.01180   0.02370   0.01180
  26        2PZ        -0.02553  -0.05241  -0.02553  -0.05241  -0.02553
  27        3S         -0.02678  -0.02169  -0.02678  -0.02169  -0.02678
  28        3PX         0.00000   0.00000  -0.01170  -0.02069   0.01170
  29        3PY        -0.01351  -0.02389   0.00675   0.01195   0.00675
  30        3PZ        -0.01914  -0.02745  -0.01914  -0.02745  -0.01914
  31        4XX        -0.00243  -0.00214   0.00120   0.00265   0.00120
  32        4YY         0.00241   0.00425  -0.00122  -0.00054  -0.00122
  33        4ZZ         0.00273  -0.00031   0.00273  -0.00031   0.00273
  34        4XY         0.00000   0.00000  -0.00242  -0.00320   0.00242
  35        4XZ         0.00000   0.00000   0.00705   0.00690  -0.00705
  36        4YZ         0.00814   0.00796  -0.00407  -0.00398  -0.00407
  37 6   H  1S         -0.01525  -0.01577  -0.01525  -0.01577   0.02896
  38        2S         -0.01577  -0.01583  -0.01577  -0.01583   0.04733
  39 7   H  1S          0.02896   0.04733  -0.01525  -0.01577  -0.01525
  40        2S          0.04733   0.05976  -0.01577  -0.01583  -0.01577
  41 8   H  1S         -0.01525  -0.01577   0.02896   0.04733  -0.01525
  42        2S         -0.01577  -0.01583   0.04733   0.05976  -0.01577
                          21        22        23        24        25
  21        2S          0.13746
  22 5   C  1S          0.00869   2.05057
  23        2S         -0.01856  -0.05315   0.30118
  24        2PX         0.04106   0.00000   0.00000   0.40926
  25        2PY         0.02370   0.00000   0.00000   0.00000   0.40926
  26        2PZ        -0.05241   0.00408  -0.00485   0.00000   0.00000
  27        3S         -0.02169  -0.17174   0.26518   0.00000   0.00000
  28        3PX         0.02069   0.00000   0.00000   0.18547   0.00000
  29        3PY         0.01195   0.00000   0.00000   0.00000   0.18547
  30        3PZ        -0.02745   0.00056  -0.00311   0.00000   0.00000
  31        4XX         0.00265  -0.01927   0.00118   0.00000   0.01689
  32        4YY        -0.00054  -0.01927   0.00118   0.00000  -0.01689
  33        4ZZ        -0.00031  -0.01576  -0.00649   0.00000   0.00000
  34        4XY         0.00320   0.00000   0.00000   0.01950   0.00000
  35        4XZ        -0.00690   0.00000   0.00000  -0.01501   0.00000
  36        4YZ        -0.00398   0.00000   0.00000   0.00000  -0.01501
  37 6   H  1S          0.04733  -0.05503   0.10562   0.21939   0.12667
  38        2S          0.05976  -0.00892   0.02779   0.18760   0.10831
  39 7   H  1S         -0.01577  -0.05503   0.10562   0.00000  -0.25333
  40        2S         -0.01583  -0.00892   0.02779   0.00000  -0.21662
  41 8   H  1S         -0.01577  -0.05503   0.10562  -0.21939   0.12667
  42        2S         -0.01583  -0.00892   0.02779  -0.18760   0.10831
                          26        27        28        29        30
  26        2PZ         0.38182
  27        3S          0.00438   0.24305
  28        3PX         0.00000   0.00000   0.08410
  29        3PY         0.00000   0.00000   0.00000   0.08410
  30        3PZ         0.17920   0.00270   0.00000   0.00000   0.08509
  31        4XX        -0.01032   0.00207   0.00000   0.00768  -0.00476
  32        4YY        -0.01032   0.00207   0.00000  -0.00768  -0.00476
  33        4ZZ         0.01469  -0.00494   0.00000   0.00000   0.00647
  34        4XY         0.00000   0.00000   0.00887   0.00000   0.00000
  35        4XZ         0.00000   0.00000  -0.00693   0.00000   0.00000
  36        4YZ         0.00000   0.00000   0.00000  -0.00693   0.00000
  37 6   H  1S         -0.08662   0.09319   0.09965   0.05754  -0.04097
  38        2S         -0.07505   0.02264   0.08548   0.04935  -0.03556
  39 7   H  1S         -0.08662   0.09319   0.00000  -0.11507  -0.04097
  40        2S         -0.07505   0.02264   0.00000  -0.09870  -0.03556
  41 8   H  1S         -0.08662   0.09319  -0.09965   0.05754  -0.04097
  42        2S         -0.07505   0.02264  -0.08548   0.04935  -0.03556
                          31        32        33        34        35
  31        4XX         0.00118
  32        4YY        -0.00024   0.00118
  33        4ZZ        -0.00030  -0.00030   0.00105
  34        4XY         0.00000   0.00000   0.00000   0.00095
  35        4XZ         0.00000   0.00000   0.00000  -0.00079   0.00089
  36        4YZ        -0.00069   0.00069   0.00000   0.00000   0.00000
  37 6   H  1S          0.00833  -0.00226  -0.00520   0.01059  -0.00864
  38        2S          0.00674  -0.00247  -0.00330   0.00921  -0.00807
  39 7   H  1S         -0.00756   0.01363  -0.00520   0.00000   0.00000
  40        2S         -0.00708   0.01135  -0.00330   0.00000   0.00000
  41 8   H  1S          0.00833  -0.00226  -0.00520  -0.01059   0.00864
  42        2S          0.00674  -0.00247  -0.00330  -0.00921   0.00807
                          36        37        38        39        40
  36        4YZ         0.00089
  37 6   H  1S         -0.00499   0.21478
  38        2S         -0.00466   0.16331   0.13746
  39 7   H  1S          0.00998  -0.02256  -0.04204   0.21478
  40        2S          0.00932  -0.04204  -0.04290   0.16331   0.13746
  41 8   H  1S         -0.00499  -0.02256  -0.04204  -0.02256  -0.04204
  42        2S         -0.00466  -0.04204  -0.04290  -0.04204  -0.04290
                          41        42
  41 8   H  1S          0.21478
  42        2S          0.16331   0.13746
    Full Mulliken population analysis:
                           1         2         3         4         5
   1 1   C  1S          2.05057
   2        2S         -0.01164   0.30118
   3        2PX         0.00000   0.00000   0.40926
   4        2PY         0.00000   0.00000   0.00000   0.40926
   5        2PZ         0.00000   0.00000   0.00000   0.00000   0.38182
   6        3S         -0.03164   0.21540   0.00000   0.00000   0.00000
   7        3PX         0.00000   0.00000   0.10567   0.00000   0.00000
   8        3PY         0.00000   0.00000   0.00000   0.10567   0.00000
   9        3PZ         0.00000   0.00000   0.00000   0.00000   0.10210
  10        4XX        -0.00152   0.00084   0.00000   0.00000   0.00000
  11        4YY        -0.00152   0.00084   0.00000   0.00000   0.00000
  12        4ZZ        -0.00125  -0.00461   0.00000   0.00000   0.00000
  13        4XY         0.00000   0.00000   0.00000   0.00000   0.00000
  14        4XZ         0.00000   0.00000   0.00000   0.00000   0.00000
  15        4YZ         0.00000   0.00000   0.00000   0.00000   0.00000
  16 2   H  1S         -0.00197   0.03025   0.00000   0.09125   0.01103
  17        2S         -0.00084   0.01348   0.00000   0.05434   0.00666
  18 3   H  1S         -0.00197   0.03025   0.06844   0.02281   0.01103
  19        2S         -0.00084   0.01348   0.04075   0.01358   0.00666
  20 4   H  1S         -0.00197   0.03025   0.06844   0.02281   0.01103
  21        2S         -0.00084   0.01348   0.04075   0.01358   0.00666
  22 5   C  1S          0.00000  -0.00012   0.00000   0.00000  -0.00116
  23        2S         -0.00012   0.00306   0.00000   0.00000   0.02389
  24        2PX         0.00000   0.00000   0.00004   0.00000   0.00000
  25        2PY         0.00000   0.00000   0.00000   0.00004   0.00000
  26        2PZ        -0.00116   0.02389   0.00000   0.00000   0.08020
  27        3S          0.00014   0.00168   0.00000   0.00000   0.02960
  28        3PX         0.00000   0.00000  -0.00079   0.00000   0.00000
  29        3PY         0.00000   0.00000   0.00000  -0.00079   0.00000
  30        3PZ        -0.00184   0.02238   0.00000   0.00000   0.03571
  31        4XX         0.00000  -0.00022   0.00000   0.00000  -0.00059
  32        4YY         0.00000  -0.00022   0.00000   0.00000  -0.00059
  33        4ZZ        -0.00012   0.00259   0.00000   0.00000   0.00194
  34        4XY         0.00000   0.00000   0.00000   0.00000   0.00000
  35        4XZ         0.00000   0.00000   0.00123   0.00000   0.00000
  36        4YZ         0.00000   0.00000   0.00000   0.00123   0.00000
  37 6   H  1S          0.00000  -0.00014  -0.00013  -0.00004  -0.00036
  38        2S          0.00012  -0.00198  -0.00185  -0.00062  -0.00513
  39 7   H  1S          0.00000  -0.00014   0.00000  -0.00018  -0.00036
  40        2S          0.00012  -0.00198   0.00000  -0.00247  -0.00513
  41 8   H  1S          0.00000  -0.00014  -0.00013  -0.00004  -0.00036
  42        2S          0.00012  -0.00198  -0.00185  -0.00062  -0.00513
                           6         7         8         9        10
   6        3S          0.24305
   7        3PX         0.00000   0.08410
   8        3PY         0.00000   0.00000   0.08410
   9        3PZ         0.00000   0.00000   0.00000   0.08509
  10        4XX         0.00131   0.00000   0.00000   0.00000   0.00118
  11        4YY         0.00131   0.00000   0.00000   0.00000  -0.00008
  12        4ZZ        -0.00311   0.00000   0.00000   0.00000  -0.00010
  13        4XY         0.00000   0.00000   0.00000   0.00000   0.00000
  14        4XZ         0.00000   0.00000   0.00000   0.00000   0.00000
  15        4YZ         0.00000   0.00000   0.00000   0.00000   0.00000
  16 2   H  1S          0.03588   0.00000   0.05602   0.00705  -0.00094
  17        2S          0.01615   0.00000   0.05390   0.00687  -0.00254
  18 3   H  1S          0.03588   0.04201   0.01400   0.00705   0.00296
  19        2S          0.01615   0.04043   0.01348   0.00687   0.00277
  20 4   H  1S          0.03588   0.04201   0.01400   0.00705   0.00296
  21        2S          0.01615   0.04043   0.01348   0.00687   0.00277
  22 5   C  1S          0.00014   0.00000   0.00000  -0.00184   0.00000
  23        2S          0.00168   0.00000   0.00000   0.02238  -0.00022
  24        2PX         0.00000  -0.00079   0.00000   0.00000   0.00000
  25        2PY         0.00000   0.00000  -0.00079   0.00000   0.00000
  26        2PZ         0.02960   0.00000   0.00000   0.03571  -0.00059
  27        3S         -0.00495   0.00000   0.00000   0.02835  -0.00091
  28        3PX         0.00000  -0.00195   0.00000   0.00000   0.00000
  29        3PY         0.00000   0.00000  -0.00195   0.00000   0.00000
  30        3PZ         0.02835   0.00000   0.00000   0.01611  -0.00139
  31        4XX        -0.00091   0.00000   0.00000  -0.00139   0.00001
  32        4YY        -0.00091   0.00000   0.00000  -0.00139   0.00000
  33        4ZZ         0.00329   0.00000   0.00000   0.00139   0.00000
  34        4XY         0.00000   0.00000   0.00000   0.00000   0.00000
  35        4XZ         0.00000   0.00077   0.00000   0.00000   0.00000
  36        4YZ         0.00000   0.00000   0.00077   0.00000   0.00000
  37 6   H  1S         -0.00192  -0.00091  -0.00030  -0.00324   0.00000
  38        2S         -0.00557  -0.00352  -0.00117  -0.01015   0.00021
  39 7   H  1S         -0.00192   0.00000  -0.00122  -0.00324   0.00000
  40        2S         -0.00557   0.00000  -0.00470  -0.01015  -0.00015
  41 8   H  1S         -0.00192  -0.00091  -0.00030  -0.00324   0.00000
  42        2S         -0.00557  -0.00352  -0.00117  -0.01015   0.00021
                          11        12        13        14        15
  11        4YY         0.00118
  12        4ZZ        -0.00010   0.00105
  13        4XY         0.00000   0.00000   0.00095
  14        4XZ         0.00000   0.00000   0.00000   0.00089
  15        4YZ         0.00000   0.00000   0.00000   0.00000   0.00089
  16 2   H  1S          0.00590  -0.00085   0.00000   0.00000   0.00189
  17        2S          0.00487  -0.00121   0.00000   0.00000   0.00040
  18 3   H  1S         -0.00046  -0.00085   0.00245   0.00141   0.00047
  19        2S         -0.00093  -0.00121   0.00049   0.00030   0.00010
  20 4   H  1S         -0.00046  -0.00085   0.00245   0.00141   0.00047
  21        2S         -0.00093  -0.00121   0.00049   0.00030   0.00010
  22 5   C  1S          0.00000  -0.00012   0.00000   0.00000   0.00000
  23        2S         -0.00022   0.00259   0.00000   0.00000   0.00000
  24        2PX         0.00000   0.00000   0.00000   0.00123   0.00000
  25        2PY         0.00000   0.00000   0.00000   0.00000   0.00123
  26        2PZ        -0.00059   0.00194   0.00000   0.00000   0.00000
  27        3S         -0.00091   0.00329   0.00000   0.00000   0.00000
  28        3PX         0.00000   0.00000   0.00000   0.00077   0.00000
  29        3PY         0.00000   0.00000   0.00000   0.00000   0.00077
  30        3PZ        -0.00139   0.00139   0.00000   0.00000   0.00000
  31        4XX         0.00000   0.00000   0.00000   0.00000   0.00000
  32        4YY         0.00001   0.00000   0.00000   0.00000   0.00000
  33        4ZZ         0.00000  -0.00008   0.00000   0.00000   0.00000
  34        4XY         0.00000   0.00000   0.00001   0.00000   0.00000
  35        4XZ         0.00000   0.00000   0.00000  -0.00017   0.00000
  36        4YZ         0.00000   0.00000   0.00000   0.00000  -0.00017
  37 6   H  1S          0.00000   0.00003   0.00001   0.00006   0.00002
  38        2S         -0.00004  -0.00004   0.00003   0.00026   0.00009
  39 7   H  1S          0.00001   0.00003   0.00000   0.00000   0.00008
  40        2S          0.00035  -0.00004   0.00000   0.00000   0.00035
  41 8   H  1S          0.00000   0.00003   0.00001   0.00006   0.00002
  42        2S         -0.00004  -0.00004   0.00003   0.00026   0.00009
                          16        17        18        19        20
  16 2   H  1S          0.21478
  17        2S          0.10750   0.13746
  18 3   H  1S         -0.00048  -0.00662   0.21478
  19        2S         -0.00662  -0.01781   0.10750   0.13746
  20 4   H  1S         -0.00048  -0.00662  -0.00048  -0.00662   0.21478
  21        2S         -0.00662  -0.01781  -0.00662  -0.01781   0.10750
  22 5   C  1S          0.00000   0.00012   0.00000   0.00012   0.00000
  23        2S         -0.00014  -0.00198  -0.00014  -0.00198  -0.00014
  24        2PX         0.00000   0.00000  -0.00013  -0.00185  -0.00013
  25        2PY        -0.00018  -0.00247  -0.00004  -0.00062  -0.00004
  26        2PZ        -0.00036  -0.00513  -0.00036  -0.00513  -0.00036
  27        3S         -0.00192  -0.00557  -0.00192  -0.00557  -0.00192
  28        3PX         0.00000   0.00000  -0.00091  -0.00352  -0.00091
  29        3PY        -0.00122  -0.00470  -0.00030  -0.00117  -0.00030
  30        3PZ        -0.00324  -0.01015  -0.00324  -0.01015  -0.00324
  31        4XX         0.00000  -0.00015   0.00000   0.00021   0.00000
  32        4YY         0.00001   0.00035   0.00000  -0.00004   0.00000
  33        4ZZ         0.00003  -0.00004   0.00003  -0.00004   0.00003
  34        4XY         0.00000   0.00000   0.00001   0.00003   0.00001
  35        4XZ         0.00000   0.00000   0.00006   0.00026   0.00006
  36        4YZ         0.00008   0.00035   0.00002   0.00009   0.00002
  37 6   H  1S         -0.00001  -0.00060  -0.00001  -0.00060   0.00000
  38        2S         -0.00060  -0.00274  -0.00060  -0.00274   0.00044
  39 7   H  1S          0.00000   0.00044  -0.00001  -0.00060  -0.00001
  40        2S          0.00044   0.00429  -0.00060  -0.00274  -0.00060
  41 8   H  1S         -0.00001  -0.00060   0.00000   0.00044  -0.00001
  42        2S         -0.00060  -0.00274   0.00044   0.00429  -0.00060
                          21        22        23        24        25
  21        2S          0.13746
  22 5   C  1S          0.00012   2.05057
  23        2S         -0.00198  -0.01164   0.30118
  24        2PX        -0.00185   0.00000   0.00000   0.40926
  25        2PY        -0.00062   0.00000   0.00000   0.00000   0.40926
  26        2PZ        -0.00513   0.00000   0.00000   0.00000   0.00000
  27        3S         -0.00557  -0.03164   0.21540   0.00000   0.00000
  28        3PX        -0.00352   0.00000   0.00000   0.10567   0.00000
  29        3PY        -0.00117   0.00000   0.00000   0.00000   0.10567
  30        3PZ        -0.01015   0.00000   0.00000   0.00000   0.00000
  31        4XX         0.00021  -0.00152   0.00084   0.00000   0.00000
  32        4YY        -0.00004  -0.00152   0.00084   0.00000   0.00000
  33        4ZZ        -0.00004  -0.00125  -0.00461   0.00000   0.00000
  34        4XY         0.00003   0.00000   0.00000   0.00000   0.00000
  35        4XZ         0.00026   0.00000   0.00000   0.00000   0.00000
  36        4YZ         0.00009   0.00000   0.00000   0.00000   0.00000
  37 6   H  1S          0.00044  -0.00197   0.03025   0.06844   0.02281
  38        2S          0.00429  -0.00084   0.01348   0.04075   0.01358
  39 7   H  1S         -0.00060  -0.00197   0.03025   0.00000   0.09125
  40        2S         -0.00274  -0.00084   0.01348   0.00000   0.05434
  41 8   H  1S         -0.00060  -0.00197   0.03025   0.06844   0.02281
  42        2S         -0.00274  -0.00084   0.01348   0.04075   0.01358
                          26        27        28        29        30
  26        2PZ         0.38182
  27        3S          0.00000   0.24305
  28        3PX         0.00000   0.00000   0.08410
  29        3PY         0.00000   0.00000   0.00000   0.08410
  30        3PZ         0.10210   0.00000   0.00000   0.00000   0.08509
  31        4XX         0.00000   0.00131   0.00000   0.00000   0.00000
  32        4YY         0.00000   0.00131   0.00000   0.00000   0.00000
  33        4ZZ         0.00000  -0.00311   0.00000   0.00000   0.00000
  34        4XY         0.00000   0.00000   0.00000   0.00000   0.00000
  35        4XZ         0.00000   0.00000   0.00000   0.00000   0.00000
  36        4YZ         0.00000   0.00000   0.00000   0.00000   0.00000
  37 6   H  1S          0.01103   0.03588   0.04201   0.01400   0.00705
  38        2S          0.00666   0.01615   0.04043   0.01348   0.00687
  39 7   H  1S          0.01103   0.03588   0.00000   0.05602   0.00705
  40        2S          0.00666   0.01615   0.00000   0.05390   0.00687
  41 8   H  1S          0.01103   0.03588   0.04201   0.01400   0.00705
  42        2S          0.00666   0.01615   0.04043   0.01348   0.00687
                          31        32        33        34        35
  31        4XX         0.00118
  32        4YY        -0.00008   0.00118
  33        4ZZ        -0.00010  -0.00010   0.00105
  34        4XY         0.00000   0.00000   0.00000   0.00095
  35        4XZ         0.00000   0.00000   0.00000   0.00000   0.00089
  36        4YZ         0.00000   0.00000   0.00000   0.00000   0.00000
  37 6   H  1S          0.00296  -0.00046  -0.00085   0.00245   0.00141
  38        2S          0.00277  -0.00093  -0.00121   0.00049   0.00030
  39 7   H  1S         -0.00094   0.00590  -0.00085   0.00000   0.00000
  40        2S         -0.00254   0.00487  -0.00121   0.00000   0.00000
  41 8   H  1S          0.00296  -0.00046  -0.00085   0.00245   0.00141
  42        2S          0.00277  -0.00093  -0.00121   0.00049   0.00030
                          36        37        38        39        40
  36        4YZ         0.00089
  37 6   H  1S          0.00047   0.21478
  38        2S          0.00010   0.10750   0.13746
  39 7   H  1S          0.00189  -0.00048  -0.00662   0.21478
  40        2S          0.00040  -0.00662  -0.01781   0.10750   0.13746
  41 8   H  1S          0.00047  -0.00048  -0.00662  -0.00048  -0.00662
  42        2S          0.00010  -0.00662  -0.01781  -0.00662  -0.01781
                          41        42
  41 8   H  1S          0.21478
  42        2S          0.10750   0.13746
     Gross orbital populations:
                           1
   1 1   C  1S          1.99182
   2        2S          0.67991
   3        2PX         0.72983
   4        2PY         0.72983
   5        2PZ         0.68952
   6        3S          0.61623
   7        3PX         0.34381
   8        3PY         0.34381
   9        3PZ         0.28809
  10        4XX         0.00678
  11        4YY         0.00678
  12        4ZZ        -0.00530
  13        4XY         0.00691
  14        4XZ         0.00679
  15        4YZ         0.00679
  16 2   H  1S          0.53592
  17        2S          0.31688
  18 3   H  1S          0.53592
  19        2S          0.31688
  20 4   H  1S          0.53592
  21        2S          0.31688
  22 5   C  1S          1.99182
  23        2S          0.67991
  24        2PX         0.72983
  25        2PY         0.72983
  26        2PZ         0.68952
  27        3S          0.61623
  28        3PX         0.34381
  29        3PY         0.34381
  30        3PZ         0.28809
  31        4XX         0.00678
  32        4YY         0.00678
  33        4ZZ        -0.00530
  34        4XY         0.00691
  35        4XZ         0.00679
  36        4YZ         0.00679
  37 6   H  1S          0.53592
  38        2S          0.31688
  39 7   H  1S          0.53592
  40        2S          0.31688
  41 8   H  1S          0.53592
  42        2S          0.31688
          Condensed to atoms (all electrons):
               1          2          3          4          5          6
     1  C    5.009659   0.387596   0.387596   0.387596   0.377964  -0.036269
     2  H    0.387596   0.567243  -0.031520  -0.031520  -0.036269  -0.003945
     3  H    0.387596  -0.031520   0.567243  -0.031520  -0.036269  -0.003945
     4  H    0.387596  -0.031520  -0.031520   0.567243  -0.036269   0.005159
     5  C    0.377964  -0.036269  -0.036269  -0.036269   5.009659   0.387596
     6  H   -0.036269  -0.003945  -0.003945   0.005159   0.387596   0.567243
     7  H   -0.036269   0.005159  -0.003945  -0.003945   0.387596  -0.031520
     8  H   -0.036269  -0.003945   0.005159  -0.003945   0.387596  -0.031520
               7          8
     1  C   -0.036269  -0.036269
     2  H    0.005159  -0.003945
     3  H   -0.003945   0.005159
     4  H   -0.003945  -0.003945
     5  C    0.387596   0.387596
     6  H   -0.031520  -0.031520
     7  H    0.567243  -0.031520
     8  H   -0.031520   0.567243
 Mulliken charges:
               1
     1  C   -0.441603
     2  H    0.147201
     3  H    0.147201
     4  H    0.147201
     5  C   -0.441603
     6  H    0.147201
     7  H    0.147201
     8  H    0.147201
 Sum of Mulliken charges =   0.00000
 Mulliken charges with hydrogens summed into heavy atoms:
               1
     1  C    0.000000
     5  C    0.000000
 Electronic spatial extent (au):  <R**2>=            107.4437
 Charge=              0.0000 electrons
 Dipole moment (field-independent basis, Debye):
    X=              0.0000    Y=              0.0000    Z=              0.0000  Tot=              0.0000
 Quadrupole moment (field-independent basis, Debye-Ang):
   XX=            -14.5050   YY=            -14.5050   ZZ=            -15.4202
   XY=              0.0000   XZ=              0.0000   YZ=              0.0000
 Traceless Quadrupole moment (field-independent basis, Debye-Ang):
   XX=              0.3051   YY=              0.3051   ZZ=             -0.6101
   XY=              0.0000   XZ=              0.0000   YZ=              0.0000
 Octapole moment (field-independent basis, Debye-Ang**2):
  XXX=              0.0000  YYY=              0.0000  ZZZ=              0.0000  XYY=              0.0000
  XXY=              0.0000  XXZ=              0.0000  XZZ=              0.0000  YZZ=              0.0000
  YYZ=              0.0000  XYZ=              0.0000
 Hexadecapole moment (field-independent basis, Debye-Ang**3):
 XXXX=            -27.6383 YYYY=            -27.6383 ZZZZ=            -90.8833 XXXY=              0.0000
 XXXZ=              0.0000 YYYX=              0.0000 YYYZ=              1.1107 ZZZX=              0.0000
 ZZZY=              0.0000 XXYY=             -9.2128 XXZZ=            -18.7264 YYZZ=            -18.7264
 XXYZ=             -1.1107 YYXZ=              0.0000 ZZXY=              0.0000
 N-N= 4.267032165119D+01 E-N=-2.693007983941D+02  KE= 7.917888840384D+01
 Symmetry AG   KE= 3.897069908316D+01
 Symmetry BG   KE= 2.135020063784D+00
 Symmetry AU   KE= 1.840609167499D+00
 Symmetry BU   KE= 3.623256008941D+01
 Orbital energies and kinetic energies (alpha):
                                 1                 2
   1         (A1G)--O        -10.162821         15.878128
   2         (A2U)--O        -10.162619         15.883132
   3         (A1G)--O         -0.751943          1.314335
   4         (A2U)--O         -0.615588          1.312844
   5         (EU)--O          -0.437665          0.920305
   6         (EU)--O          -0.437665          0.920305
   7         (A1G)--O         -0.351914          1.225377
   8         (EG)--O          -0.346443          1.067510
   9         (EG)--O          -0.346443          1.067510
  10         (A1G)--V          0.106981          0.877370
  11         (A2U)--V          0.166370          1.159854
  12         (EU)--V           0.176518          0.884848
  13         (EU)--V           0.176518          0.884848
  14         (EG)--V           0.192623          0.816022
  15         (EG)--V           0.192623          0.816022
  16         (A2U)--V          0.236798          1.279770
  17         (A1G)--V          0.511328          1.569264
  18         (EU)--V           0.543811          1.548195
  19         (EU)--V           0.543811          1.548195
  20         (EG)--V           0.620017          1.814151
  21         (EG)--V           0.620017          1.814151
  22         (A2U)--V          0.667773          2.716493
  23         (EU)--V           0.903927          2.638487
  24         (EU)--V           0.903927          2.638487
  25         (A1G)--V          0.926178          2.757947
  26         (EG)--V           0.944451          2.614944
  27         (EG)--V           0.944451          2.614944
  28         (A2U)--V          1.012253          2.862866
[...]
     2   1     0.00   0.17  -0.37     0.00  -0.17   0.36     0.49   0.00   0.00
     3   1     0.14  -0.08  -0.37    -0.15   0.09   0.36     0.03   0.26   0.25
     4   1    -0.14  -0.08  -0.37     0.15   0.09   0.36     0.03  -0.26  -0.25
     5   6     0.00   0.00   0.09     0.00   0.00   0.11     0.02   0.00   0.00
     6   1    -0.14  -0.08  -0.37    -0.15  -0.09  -0.36    -0.03   0.26   0.25
     7   1     0.00   0.17  -0.37     0.00   0.17  -0.36    -0.49   0.00   0.00
     8   1     0.14  -0.08  -0.37     0.15  -0.09  -0.36    -0.03  -0.26  -0.25
                     10                     11                     12
                     EG                     EU                     EU
 Frequencies --   1532.0381              1537.6884              1537.6901
 Red. masses --      1.0199                 1.0620                 1.0620
 Frc consts  --      1.4104                 1.4795                 1.4795
 IR Inten    --      0.0000                 7.4600                 7.4620
  Atom  AN      X      Y      Z        X      Y      Z        X      Y      Z
     1   6     0.00  -0.02   0.00    -0.05   0.00   0.00     0.00   0.05   0.00
     2   1     0.00  -0.12   0.28     0.52   0.00   0.00     0.00   0.12  -0.22
     3   1     0.26   0.34  -0.14     0.04   0.28   0.19    -0.28  -0.36   0.11
     4   1    -0.26   0.34  -0.14     0.04  -0.28  -0.19     0.28  -0.36   0.11
     5   6     0.00   0.02   0.00    -0.05   0.00   0.00     0.00   0.05   0.00
     6   1     0.26  -0.34   0.14     0.04  -0.28  -0.19     0.28  -0.36   0.11
     7   1     0.00   0.12  -0.28     0.52   0.00   0.00     0.00   0.12  -0.22
     8   1    -0.26  -0.34   0.14     0.04   0.28   0.19    -0.28  -0.36   0.11
                     13                     14                     15
                     A1G                    A2U                    EG
 Frequencies --   3046.9725              3047.8170              3098.3147
 Red. masses --      1.0367                 1.0343                 1.1021
 Frc consts  --      5.6705                 5.6607                 6.2331
 IR Inten    --      0.0000                59.0624                 0.0000
  Atom  AN      X      Y      Z        X      Y      Z        X      Y      Z
     1   6     0.00   0.00  -0.04     0.00   0.00   0.03     0.00  -0.07   0.00
     2   1     0.00   0.38   0.14     0.00  -0.38  -0.14     0.00   0.54   0.20
     3   1     0.33  -0.19   0.14    -0.33   0.19  -0.14    -0.24   0.12  -0.10
     4   1    -0.33  -0.19   0.14     0.33   0.19  -0.14     0.24   0.12  -0.10
     5   6     0.00   0.00   0.04     0.00   0.00   0.03     0.00   0.07   0.00
     6   1     0.33   0.19  -0.14     0.33   0.19  -0.14    -0.24  -0.12   0.10
     7   1     0.00  -0.38  -0.14     0.00  -0.38  -0.14     0.00  -0.54  -0.20
     8   1    -0.33   0.19  -0.14    -0.33   0.19  -0.14     0.24  -0.12   0.10
                     16                     17                     18
                     EG                     EU                     EU
 Frequencies --   3098.3148              3122.6954              3122.6972
 Red. masses --      1.1021                 1.1030                 1.1030
 Frc consts  --      6.2331                 6.3372                 6.3372
 IR Inten    --      0.0000                73.8737                73.8659
  Atom  AN      X      Y      Z        X      Y      Z        X      Y      Z
     1   6    -0.07   0.00   0.00     0.07   0.00   0.00     0.00   0.07   0.00
     2   1    -0.02   0.00   0.00     0.01   0.00   0.00     0.00  -0.54  -0.21
     3   1     0.40  -0.24   0.18    -0.40   0.24  -0.18     0.24  -0.12   0.10
     4   1     0.40   0.24  -0.18    -0.40  -0.24   0.18    -0.24  -0.12   0.10
     5   6     0.07   0.00   0.00     0.07   0.00   0.00     0.00   0.07   0.00
     6   1    -0.40  -0.24   0.18    -0.40  -0.24   0.18    -0.24  -0.12   0.10
     7   1     0.02   0.00   0.00     0.01   0.00   0.00     0.00  -0.54  -0.21
     8   1    -0.40   0.24  -0.18    -0.40   0.24  -0.18     0.24  -0.12   0.10

 -------------------
 - Thermochemistry -
 -------------------
 Temperature   298.150 Kelvin.  Pressure   1.00000 Atm.
 Atom     1 has atomic number  6 and mass  12.00000
 Atom     2 has atomic number  1 and mass   1.00783
 Atom     3 has atomic number  1 and mass   1.00783
 Atom     4 has atomic number  1 and mass   1.00783
 Atom     5 has atomic number  6 and mass  12.00000
 Atom     6 has atomic number  1 and mass   1.00783
 Atom     7 has atomic number  1 and mass   1.00783
 Atom     8 has atomic number  1 and mass   1.00783
 Molecular mass:    30.04695 amu.
 Principal axes and moments of inertia in atomic units:
                           1         2         3
     Eigenvalues --    22.51094  90.73803  90.73803
           X            0.00000   0.70711   0.70711
           Y            0.00000   0.70711  -0.70711
           Z            1.00000   0.00000   0.00000
 This molecule is a prolate symmetric top.
 Rotational symmetry number  6.
 Rotational temperatures (Kelvin)      3.84763     0.95455     0.95455
 Rotational constants (GHZ):          80.17173    19.88958    19.88958
 Zero-point vibrational energy     197513.7 (Joules/Mol)
                                   47.20691 (Kcal/Mol)
 Warning -- explicit consideration of   1 degrees of freedom as
           vibrations may cause significant error
 Vibrational temperatures:    451.80  1197.53  1197.53  1452.78  1777.29
          (Kelvin)           1777.30  2060.98  2092.02  2204.26  2204.26
                             2212.39  2212.39  4383.91  4385.12  4457.78
                             4457.78  4492.86  4492.86
 
 Zero-point correction=                           0.075229 (Hartree/Particle)
 Thermal correction to Energy=                    0.078698
 Thermal correction to Enthalpy=                  0.079642
 Thermal correction to Gibbs Free Energy=         0.053810
 Sum of electronic and zero-point Energies=            -79.755188
 Sum of electronic and thermal Energies=               -79.751720
 Sum of electronic and thermal Enthalpies=             -79.750776
 Sum of electronic and thermal Free Energies=          -79.776607
 
                     E (Thermal)             CV                S
                      KCal/Mol        Cal/Mol-Kelvin    Cal/Mol-Kelvin
 Total                   49.384              9.988             54.367
 Electronic               0.000              0.000              0.000
 Translational            0.889              2.981             36.134
 Rotational               0.889              2.981             16.295
 Vibrational             47.606              4.026              1.938
 Vibration     1          0.702              1.647              1.341
                       Q            Log10(Q)             Ln(Q)
 Total Bot       0.177411D-24        -24.751020        -56.991330
 Total V=0       0.710955D+10          9.851842         22.684704
 Vib (Bot)       0.337398D-34        -34.471857        -79.374385
 Vib (Bot)    1  0.600770D+00         -0.221291         -0.509542
 Vib (V=0)       0.135209D+01          0.131005          0.301650
 Vib (V=0)    1  0.128162D+01          0.107758          0.248123
 Electronic      0.100000D+01          0.000000          0.000000
 Translational   0.647375D+07          6.811156         15.683266
 Rotational      0.812234D+03          2.909681          6.699789
 ***** Axes restored to original set *****
 -------------------------------------------------------------------
 Center     Atomic                   Forces (Hartrees/Bohr)
 Number     Number              X              Y              Z
 -------------------------------------------------------------------
      1        6           0.000000000    0.000000000   -0.000016434
      2        1           0.000000000   -0.000058146    0.000030207
      3        1           0.000050356    0.000029073    0.000030207
      4        1          -0.000050356    0.000029073    0.000030207
      5        6           0.000000000    0.000000000    0.000016434
      6        1           0.000050356   -0.000029073   -0.000030207
      7        1           0.000000000    0.000058146   -0.000030207
      8        1          -0.000050356   -0.000029073   -0.000030207
 -------------------------------------------------------------------
 Cartesian Forces:  Max     0.000058146 RMS     0.000033104
 FormGI is forming the generalized inverse of G from B-inverse, IUseBI=4.

 GradGradGradGradGradGradGradGradGradGradGradGradGradGradGradGradGradGrad
 Berny optimization.
 Internal  Forces:  Max     0.000074186 RMS     0.000033571
 Search for a local minimum.
 Step number   1 out of a maximum of    2
 All quantities printed in internal units (Hartrees-Bohrs-Radians)
 Second derivative matrix not updated -- analytic derivatives used.
 ITU=  0
     Eigenvalues ---    0.00231   0.04648   0.04648   0.04869   0.04869
     Eigenvalues ---    0.12417   0.12592   0.12592   0.12847   0.18086
     Eigenvalues ---    0.18086   0.30681   0.33485   0.33485   0.33751
     Eigenvalues ---    0.33751   0.34582   0.34806
 Angle between quadratic step and forces=   6.68 degrees.
 Linear search not attempted -- first point.
 Iteration  1 RMS(Cart)=  0.00013423 RMS(Int)=  0.00000000
 Iteration  2 RMS(Cart)=  0.00000000 RMS(Int)=  0.00000000
 ClnCor:  largest displacement from symmetrization is 1.18D-09 for atom     4.
 Variable       Old X    -DE/DX   Delta X   Delta X   Delta X     New X
                                 (Linear)    (Quad)   (Total)
    R1        2.07163  -0.00007   0.00000  -0.00019  -0.00019   2.07145
    R2        2.07163  -0.00007   0.00000  -0.00019  -0.00019   2.07145
    R3        2.07163  -0.00007   0.00000  -0.00019  -0.00019   2.07145
    R4        2.89253  -0.00007   0.00000  -0.00021  -0.00021   2.89232
    R5        2.07163  -0.00007   0.00000  -0.00019  -0.00019   2.07145
    R6        2.07163  -0.00007   0.00000  -0.00019  -0.00019   2.07145
    R7        2.07163  -0.00007   0.00000  -0.00019  -0.00019   2.07145
    A1        1.87668   0.00001   0.00000   0.00004   0.00004   1.87672
    A2        1.87668   0.00001   0.00000   0.00004   0.00004   1.87672
    A3        1.94347  -0.00001   0.00000  -0.00004  -0.00004   1.94344
    A4        1.87668   0.00001   0.00000   0.00004   0.00004   1.87672
    A5        1.94347  -0.00001   0.00000  -0.00004  -0.00004   1.94344
    A6        1.94347  -0.00001   0.00000  -0.00004  -0.00004   1.94344
    A7        1.94347  -0.00001   0.00000  -0.00004  -0.00004   1.94344
    A8        1.94347  -0.00001   0.00000  -0.00004  -0.00004   1.94344
    A9        1.94347  -0.00001   0.00000  -0.00004  -0.00004   1.94344
   A10        1.87668   0.00001   0.00000   0.00004   0.00004   1.87672
   A11        1.87668   0.00001   0.00000   0.00004   0.00004   1.87672
   A12        1.87668   0.00001   0.00000   0.00004   0.00004   1.87672
    D1        1.04720   0.00000   0.00000   0.00000   0.00000   1.04720
    D2        3.14159   0.00000   0.00000   0.00000   0.00000   3.14159
    D3       -1.04720   0.00000   0.00000   0.00000   0.00000  -1.04720
    D4       -1.04720   0.00000   0.00000   0.00000   0.00000  -1.04720
    D5        1.04720   0.00000   0.00000   0.00000   0.00000   1.04720
    D6        3.14159   0.00000   0.00000   0.00000   0.00000   3.14159
    D7        3.14159   0.00000   0.00000   0.00000   0.00000   3.14159
    D8       -1.04720   0.00000   0.00000   0.00000   0.00000  -1.04720
    D9        1.04720   0.00000   0.00000   0.00000   0.00000   1.04720
         Item               Value     Threshold  Converged?
 Maximum Force            0.000074     0.000450     YES
 RMS     Force            0.000034     0.000300     YES
 Maximum Displacement     0.000242     0.001800     YES
 RMS     Displacement     0.000134     0.001200     YES
 Predicted change in Energy=-4.595790D-08
 Optimization completed.
    -- Stationary point found.
                           ----------------------------
                           !   Optimized Parameters   !
                           ! (Angstroms and Degrees)  !
 --------------------------                            --------------------------
 ! Name  Definition              Value          Derivative Info.                !
 --------------------------------------------------------------------------------
 ! R1    R(1,2)                  1.0963         -DE/DX =   -0.0001              !
 ! R2    R(1,3)                  1.0963         -DE/DX =   -0.0001              !
 ! R3    R(1,4)                  1.0963         -DE/DX =   -0.0001              !
 ! R4    R(1,5)                  1.5307         -DE/DX =   -0.0001              !
 ! R5    R(5,6)                  1.0963         -DE/DX =   -0.0001              !
 ! R6    R(5,7)                  1.0963         -DE/DX =   -0.0001              !
 ! R7    R(5,8)                  1.0963         -DE/DX =   -0.0001              !
 ! A1    A(2,1,3)              107.5259         -DE/DX =    0.0                 !
 ! A2    A(2,1,4)              107.5259         -DE/DX =    0.0                 !
 ! A3    A(2,1,5)              111.3528         -DE/DX =    0.0                 !
 ! A4    A(3,1,4)              107.5259         -DE/DX =    0.0                 !
 ! A5    A(3,1,5)              111.3528         -DE/DX =    0.0                 !
 ! A6    A(4,1,5)              111.3528         -DE/DX =    0.0                 !
 ! A7    A(1,5,6)              111.3528         -DE/DX =    0.0                 !
 ! A8    A(1,5,7)              111.3528         -DE/DX =    0.0                 !
 ! A9    A(1,5,8)              111.3528         -DE/DX =    0.0                 !
 ! A10   A(6,5,7)              107.5259         -DE/DX =    0.0                 !
 ! A11   A(6,5,8)              107.5259         -DE/DX =    0.0                 !
 ! A12   A(7,5,8)              107.5259         -DE/DX =    0.0                 !
 ! D1    D(2,1,5,6)             60.0            -DE/DX =    0.0                 !
 ! D2    D(2,1,5,7)            180.0            -DE/DX =    0.0                 !
 ! D3    D(2,1,5,8)            -60.0            -DE/DX =    0.0                 !
 ! D4    D(3,1,5,6)            -60.0            -DE/DX =    0.0                 !
 ! D5    D(3,1,5,7)             60.0            -DE/DX =    0.0                 !
 ! D6    D(3,1,5,8)            180.0            -DE/DX =    0.0                 !
 ! D7    D(4,1,5,6)            180.0            -DE/DX =    0.0                 !
 ! D8    D(4,1,5,7)            -60.0            -DE/DX =    0.0                 !
 ! D9    D(4,1,5,8)             60.0            -DE/DX =    0.0                 !
 --------------------------------------------------------------------------------
 GradGradGradGradGradGradGradGradGradGradGradGradGradGradGradGradGradGrad

 1\1\GINC-NODE10\Freq\RB3LYP\6-31G(d)\C2H6\SHIXF21\12-Aug-2022\0\\#N Ge
 om=AllCheck Guess=TCheck SCRF=Check GenChk RB3LYP/6-31G(d) Freq\\Title
  Card Required\\0,1\C,0.,0.,-0.7653296793\H,-0.0000000055,1.0210094994
 ,-1.1644891317\H,-0.8842201612,-0.5105047545,-1.1644891317\H,0.8842201
 668,-0.5105047449,-1.1644891317\C,0.,0.,0.7653296793\H,-0.8842201668,0
 .5105047449,1.1644891317\H,0.0000000055,-1.0210094994,1.1644891317\H,0
 .8842201612,0.5105047545,1.1644891317\\Version=ES64L-G09RevD.01\State=
 1-A1G\HF=-79.8304174\RMSD=1.480e-10\RMSF=3.310e-05\ZeroPoint=0.075229\
 Thermal=0.0786977\Dipole=0.,0.,0.\DipoleDeriv=0.1180167,0.,0.,0.,0.117
 9969,-0.0000399,0.,0.0000034,0.084186,0.0627183,0.,0.,0.,-0.1413865,0.
 0961063,0.,0.070223,-0.0280686,-0.0903639,-0.0883788,-0.0832206,-0.088
 3785,0.0116934,-0.0480432,-0.0608242,-0.0351123,-0.0280636,-0.0903639,
 0.0883788,0.0832206,0.0883785,0.0116934,-0.0480432,0.0608242,-0.035112
 3,-0.0280636,0.1180167,0.,0.,0.,0.1179969,-0.0000399,0.,0.0000034,0.08
 4186,-0.0903639,0.0883788,0.0832206,0.0883785,0.0116934,-0.0480432,0.0
 608242,-0.0351123,-0.0280636,0.0627183,0.,0.,0.,-0.1413865,0.0961063,0
 .,0.070223,-0.0280686,-0.0903639,-0.0883788,-0.0832206,-0.0883785,0.01
 16934,-0.0480432,-0.0608242,-0.0351123,-0.0280636\Polar=22.4190051,0.,
 22.4186592,0.,0.0000486,23.9399575\PG=D03D [C3(C1.C1),3SGD(H2)]\NImag=
 0\\0.57491859,0.,0.57492035,0.,-0.00000068,0.48186426,-0.05087906,0.,0
 .,0.04845666,0.,-0.28006465,0.08591014,0.,0.30242754,0.,0.08526763,-0.
 08050525,0.,-0.09466922,0.08920408,-0.22276770,-0.09923986,-0.07439983
 ,0.00091999,0.00063210,0.00135547,0.23893482,-0.09924001,-0.10817602,-
 0.04295506,-0.02635388,-0.01393049,-0.01145828,0.10997262,0.11194938,-
 0.07384268,-0.04263312,-0.08050503,0.01060089,0.00455527,0.00407065,0.
 08198595,0.04733461,0.08920408,-0.22276770,0.09923986,0.07439983,0.000
 91999,-0.00063210,-0.00135547,-0.02135573,0.01349299,0.00924542,0.2389
 3482,0.09924001,-0.10817602,-0.04295506,0.02635388,-0.01393049,-0.0114
 5828,-0.01349299,0.00834522,0.00690301,-0.10997262,0.11194938,0.073842
 68,-0.04263312,-0.08050503,-0.01060089,0.00455527,0.00407065,-0.009245
 42,0.00690301,0.00407065,-0.08198595,0.04733461,0.08920408,-0.08171027
 ,0.,0.,-0.00052274,0.,0.,0.00186309,0.00137744,-0.02907179,0.00186309,
 -0.00137745,0.02907179,0.57491859,0.,-0.08170418,-0.00000272,0.,0.0026
 5732,0.03356943,0.00137725,0.00027222,-0.01678456,-0.00137725,0.000272
 22,-0.01678456,0.,0.57492035,0.,-0.00000272,-0.20253309,0.,-0.00061969
 ,-0.01260617,0.00053718,0.00031068,-0.01260562,-0.00053718,0.00031068,
 -0.01260562,0.,-0.00000068,0.48186426,0.00186309,-0.00137725,-0.000537
 18,0.00004613,-0.00031375,0.00044615,0.00076918,-0.00010371,0.00043860
 ,0.00159112,-0.00033332,-0.00065176,-0.22276770,0.09923986,0.07439983,
 0.23893482,-0.00137745,0.00027222,0.00031068,-0.00052116,0.00052816,-0
 .00024887,0.00010371,-0.00019489,-0.00026194,-0.00033332,0.00120624,0.
 00037629,0.09924001,-0.10817602,-0.04295506,-0.10997262,0.11194938,0.0
 2907179,-0.01678456,-0.01260562,0.00000755,0.00051081,0.00148847,-0.00
 043860,-0.00026194,0.00148847,-0.00065176,0.00037629,-0.00721090,0.073
 84268,-0.04263312,-0.08050503,-0.08198595,0.04733461,0.08920408,-0.000
 52274,0.,0.,0.00101380,0.,0.,0.00004613,0.00052116,-0.00000755,0.00004
 613,-0.00052116,0.00000755,-0.05087906,0.,0.,0.00091999,0.02635388,-0.
 01060089,0.04845666,0.,0.00265732,-0.00061969,0.,0.00178357,-0.0007525
 9,0.00031375,0.00052816,0.00051081,-0.00031375,0.00052816,0.00051081,0
 .,-0.28006465,0.08591014,-0.00063210,-0.01393049,0.00455527,0.,0.30242
 754,0.,0.03356943,-0.01260617,0.,-0.00075259,-0.00721090,-0.00044615,-
 0.00024887,0.00148847,0.00044615,-0.00024887,0.00148847,0.,0.08526763,
 -0.08050525,-0.00135547,-0.01145828,0.00407065,0.,-0.09466922,0.089204
 08,0.00186309,0.00137725,0.00053718,0.00004613,0.00031375,-0.00044615,
 0.00159112,0.00033332,0.00065176,0.00076918,0.00010371,-0.00043860,-0.
 22276770,-0.09923986,-0.07439983,-0.02135573,-0.01349299,-0.00924542,0
 .00091999,0.00063210,0.00135547,0.23893482,0.00137744,0.00027222,0.000
 31068,0.00052116,0.00052816,-0.00024887,0.00033332,0.00120624,0.000376
 29,-0.00010371,-0.00019489,-0.00026194,-0.09924001,-0.10817602,-0.0429
 5506,0.01349299,0.00834522,0.00690301,-0.02635388,-0.01393049,-0.01145
 828,0.10997262,0.11194938,-0.02907179,-0.01678456,-0.01260562,-0.00000
 755,0.00051081,0.00148847,0.00065176,0.00037629,-0.00721090,0.00043860
 ,-0.00026194,0.00148847,-0.07384268,-0.04263312,-0.08050503,0.00924542
 ,0.00690301,0.00407065,0.01060089,0.00455527,0.00407065,0.08198595,0.0
 4733461,0.08920408\\0.,0.,0.00001643,0.,0.00005815,-0.00003021,-0.0000
 5036,-0.00002907,-0.00003021,0.00005036,-0.00002907,-0.00003021,0.,0.,
 -0.00001643,-0.00005036,0.00002907,0.00003021,0.,-0.00005815,0.0000302
 1,0.00005036,0.00002907,0.00003021\\\@



 IN THIS SHORT LIFE

 THAT ONLY LASTS AN HOUR

 HOW MUCH, HOW LITTLE, IS WITHIN OUR POWER....


 EMILY DICKINSON BOLTS OF MELODY NO. 521
 Job cpu time:       0 days  0 hours  0 minutes 32.0 seconds.
 File lengths (MBytes):  RWF=      5 Int=      0 D2E=      0 Chk=      1 Scr=      1
 Normal termination of Gaussian 09 at Fri Aug 12 11:10:14 2022.
