 Entering Link 1 = D:\programs\G16W\l1.exe PID=     13016.
  
 Copyright (c) 1988,1990,1992,1993,1995,1998,2003,2009,2016,
            Gaussian, Inc.  All Rights Reserved.
  
 This is part of the Gaussian(R) 16 program.  It is based on
 the Gaussian(R) 09 system (copyright 2009, Gaussian, Inc.),
 the Gaussian(R) 03 system (copyright 2003, Gaussian, Inc.),
 the Gaussian(R) 98 system (copyright 1998, Gaussian, Inc.),
 the Gaussian(R) 94 system (copyright 1995, Gaussian, Inc.),
 the Gaussian 92(TM) system (copyright 1992, Gaussian, Inc.),
 the Gaussian 90(TM) system (copyright 1990, Gaussian, Inc.),
 the Gaussian 88(TM) system (copyright 1988, Gaussian, Inc.),
 the Gaussian 86(TM) system (copyright 1986, Carnegie Mellon
 University), and the Gaussian 82(TM) system (copyright 1983,
 Carnegie Mellon University). Gaussian is a federally registered
 trademark of Gaussian, Inc.
  
 This software contains proprietary and confidential information,
 including trade secrets, belonging to Gaussian, Inc.
  
 This software is provided under written license and may be
 used, copied, transmitted, or stored only in accord with that
 written license.
  
 The following legend is applicable only to US Government
 contracts under FAR:
  
                    RESTRICTED RIGHTS LEGEND
  
 Use, reproduction and disclosure by the US Government is
 subject to restrictions as set forth in subparagraphs (a)
 and (c) of the Commercial Computer Software - Restricted
 Rights clause in FAR 52.227-19.
  
 Gaussian, Inc.
 340 Quinnipiac St., Bldg. 40, Wallingford CT 06492
  
  
 ---------------------------------------------------------------
 Warning -- This program may not be used in any manner that
 competes with the business of Gaussian, Inc. or will provide
 assistance to any competitor of Gaussian, Inc.  The licensee
 of this program is prohibited from giving any competitor of
 Gaussian, Inc. access to this program.  By using this program,
 the user acknowledges that Gaussian, Inc. is engaged in the
 business of creating and licensing software in the field of
 computational chemistry and represents and warrants to the
 licensee that it is not a competitor of Gaussian, Inc. and that
 it will not use this program in any manner prohibited above.
 ---------------------------------------------------------------
  

 Cite this work as:
 Gaussian 16, Revision A.03,
 M. J. Frisch, G. W. Trucks, H. B. Schlegel, G. E. Scuseria, 
 M. A. Robb, J. R. Cheeseman, G. Scalmani, V. Barone, 
 G. A. Petersson, H. Nakatsuji, X. Li, M. Caricato, A. V. Marenich, 
 J. Bloino, B. G. Janesko, R. Gomperts, B. Mennucci, H. P. Hratchian, 
 J. V. Ortiz, A. F. Izmaylov, J. L. Sonnenberg, D. Williams-Young, 
 F. Ding, F. Lipparini, F. Egidi, J. Goings, B. Peng, A. Petrone, 
 T. Henderson, D. Ranasinghe, V. G. Zakrzewski, J. Gao, N. Rega, 
 G. Zheng, W. Liang, M. Hada, M. Ehara, K. Toyota, R. Fukuda, 
 J. Hasegawa, M. Ishida, T. Nakajima, Y. Honda, O. Kitao, H. Nakai, 
 T. Vreven, K. Throssell, J. A. Montgomery, Jr., J. E. Peralta, 
 F. Ogliaro, M. J. Bearpark, J. J. Heyd, E. N. Brothers, K. N. Kudin, 
 V. N. Staroverov, T. A. Keith, R. Kobayashi, J. Normand, 
 K. Raghavachari, A. P. Rendell, J. C. Burant, S. S. Iyengar, 
 J. Tomasi, M. Cossi, J. M. Millam, M. Klene, C. Adamo, R. Cammi, 
 J. W. Ochterski, R. L. Martin, K. Morokuma, O. Farkas, 
 J. B. Foresman, and D. J. Fox, Gaussian, Inc., Wallingford CT, 2016.
 
 ******************************************
 Gaussian 16:  IA32W-G16RevA.03 25-Dec-2016
                12-Oct-2022 
 ******************************************
 %chk=D:\BaiduSyncdisk\gFile\ph3.chk
 --------------------------------------
 # freq b3lyp/6-31g(d) gfinput pop=full
 --------------------------------------
 1/10=4,30=1,38=1/1,3;
 2/12=2,17=6,18=5,40=1/2;
 3/5=1,6=6,7=1,11=2,24=10,25=1,30=1,71=2,74=-5,140=1/1,2,3;
 4//1;
 5/5=2,38=5,98=1/2;
 8/6=4,10=90,11=11/1;
 11/6=1,8=1,9=11,15=111,16=1/1,2,10;
 10/6=1/2;
 6/7=3,28=1/1;
 7/8=1,10=1,25=1/1,2,3,16;
 1/10=4,30=1/3;
 99//99;
 -------------------
 Title Card Required
 -------------------
 Symbolic Z-matrix:
 Charge =  0 Multiplicity = 1
 C                     0.       -3.46435  -0.31052 
 C                     0.       -2.78771   0.86607 
 C                     0.       -1.38797   0.8676 
 C                     0.       -0.69883  -0.34621 
 C                     0.       -1.41249  -1.5499 
 C                     0.       -2.76928  -1.53172 
 C                     0.       -0.67947   2.07891 
 C                     0.        0.69883  -0.34621 
 C                     0.        1.38797   0.8676 
 C                     0.        0.67947   2.07891 
 C                     0.        2.78771   0.86607 
 H                     0.        3.324     1.79197 
 C                     0.        3.46435  -0.31052 
 C                     0.        2.76928  -1.53172 
 C                     0.        1.41249  -1.5499 
 H                     0.       -1.21186   3.00706 
 H                     0.       -4.53435  -0.30814 
 H                     0.       -3.324     1.79197 
 H                     0.       -0.88911  -2.48316 
 H                     0.       -3.31332  -2.45309 
 H                     0.        1.21186   3.00706 
 H                     0.        4.53435  -0.30814 
 H                     0.        3.31332  -2.45309 
 H                     0.        0.88911  -2.48316 
 

 GradGradGradGradGradGradGradGradGradGradGradGradGradGradGradGradGradGrad
 Berny optimization.
 Initialization pass.
 Trust Radius=3.00D-01 FncErr=1.00D-07 GrdErr=1.00D-07 EigMax=2.50D+02 EigMin=1.00D-04
 Number of steps in this run=      2 maximum allowed number of steps=      2.
 GradGradGradGradGradGradGradGradGradGradGradGradGradGradGradGradGradGrad

                          Input orientation:                          
 ---------------------------------------------------------------------
 Center     Atomic      Atomic             Coordinates (Angstroms)
 Number     Number       Type             X           Y           Z
 ---------------------------------------------------------------------
      1          6           0        0.000000   -3.464352   -0.310522
      2          6           0        0.000000   -2.787710    0.866075
      3          6           0        0.000000   -1.387973    0.867599
      4          6           0        0.000000   -0.698825   -0.346212
      5          6           0        0.000000   -1.412495   -1.549903
      6          6           0        0.000000   -2.769283   -1.531717
      7          6           0        0.000000   -0.679475    2.078906
      8          6           0        0.000000    0.698825   -0.346212
      9          6           0        0.000000    1.387973    0.867599
     10          6           0        0.000000    0.679475    2.078906
     11          6           0        0.000000    2.787710    0.866075
     12          1           0        0.000000    3.324003    1.791975
     13          6           0        0.000000    3.464352   -0.310522
     14          6           0        0.000000    2.769283   -1.531717
     15          6           0        0.000000    1.412495   -1.549903
     16          1           0        0.000000   -1.211856    3.007060
     17          1           0        0.000000   -4.534349   -0.308139
     18          1           0        0.000000   -3.324003    1.791975
     19          1           0        0.000000   -0.889113   -2.483162
     20          1           0        0.000000   -3.313319   -2.453088
     21          1           0        0.000000    1.211856    3.007060
     22          1           0        0.000000    4.534349   -0.308139
     23          1           0        0.000000    3.313319   -2.453088
     24          1           0        0.000000    0.889113   -2.483162
 ---------------------------------------------------------------------
                    Distance matrix (angstroms):
                    1          2          3          4          5
     1  C    0.000000
     2  C    1.357286   0.000000
     3  C    2.387325   1.399739   0.000000
     4  C    2.765757   2.415177   1.395802   0.000000
     5  C    2.397120   2.779959   2.417627   1.399356   0.000000
     6  C    1.405147   2.397862   2.768526   2.385836   1.356910
     7  C    3.669456   2.432204   1.403293   2.425195   3.702104
     8  C    4.163330   3.691283   2.414138   1.397650   2.430338
     9  C    4.993298   4.175683   2.775945   2.414138   3.699586
    10  C    4.783374   3.673191   2.396164   2.789427   4.188626
    11  C    6.361813   5.575421   4.175683   3.691283   4.845480
    12  H    7.106494   6.181451   4.801790   4.555764   5.796771
    13  C    6.928704   6.361813   4.993298   4.163330   5.031868
    14  C    6.352127   6.052237   4.799947   3.665132   4.181817
    15  C    5.031868   4.845480   3.699586   2.430338   2.824989
    16  H    4.009998   2.658408   2.146697   3.392290   4.561378
    17  H    1.070000   2.104644   3.358876   3.835713   3.359755
    18  H    2.107176   1.070000   2.145387   3.385764   3.849937
    19  H    3.369305   3.849943   3.387693   2.145406   1.070000
    20  H    2.147882   3.360521   3.838479   3.357753   2.104489
    21  H    5.733522   4.536557   3.366957   3.859421   5.258624
    22  H    7.998702   7.415615   6.037902   5.233313   6.075108
    23  H    7.108264   6.945459   5.755789   4.531691   4.811346
    24  H    4.865493   4.973572   4.051262   2.662350   2.483621
                    6          7          8          9         10
     6  C    0.000000
     7  C    4.171797   0.000000
     8  C    3.665132   2.789427   0.000000
     9  C    4.799947   2.396164   1.395802   0.000000
    10  C    4.993047   1.358950   2.425195   1.403293   0.000000
    11  C    6.052237   3.673191   2.415177   1.399739   2.432204
    12  H    6.940825   4.013747   3.385764   2.145387   2.660049
    13  C    6.352127   4.783374   2.765757   2.387325   3.669456
    14  C    5.538565   4.993047   2.385836   2.768526   4.171797
    15  C    4.181817   4.188626   1.399356   2.417627   3.702104
    16  H    4.798548   1.070000   3.859421   3.366957   2.106799
    17  H    2.147697   4.534098   5.233313   6.037902   5.734278
    18  H    3.369665   2.660049   4.555764   4.801790   4.013747
    19  H    2.107198   4.566882   2.662350   4.051262   4.824203
    20  H    1.070000   5.241765   4.531691   5.755789   6.039980
    21  H    6.037380   2.106799   3.392290   2.146697   1.070000
    22  H    7.405416   5.734278   3.835713   3.358876   4.534098
    23  H    6.151989   6.039980   3.357753   3.838479   5.241765
    24  H    3.780094   4.824203   2.145406   3.387693   4.566882
                   11         12         13         14         15
    11  C    0.000000
    12  H    1.070000   0.000000
    13  C    1.357286   2.107176   0.000000
    14  C    2.397862   3.369665   1.405147   0.000000
    15  C    2.779959   3.849937   2.397120   1.356910   0.000000
    16  H    4.536557   4.695791   5.733522   6.037380   5.258624
    17  H    7.415615   8.134137   7.998702   7.405416   6.075108
    18  H    6.181451   6.648006   7.106494   6.940825   5.796771
    19  H    4.973572   6.002262   4.865493   3.780094   2.483621
    20  H    6.945459   7.878743   7.108264   6.151989   4.811346
    21  H    2.658408   2.436718   4.009998   4.798548   4.561378
    22  H    2.104644   2.423926   1.070000   2.147697   3.359755
    23  H    3.360521   4.245076   2.147882   1.070000   2.104489
    24  H    3.849943   4.919907   3.369305   2.107198   1.070000
                   16         17         18         19         20
    16  H    0.000000
    17  H    4.693560   0.000000
    18  H    2.436718   2.423926   0.000000
    19  H    5.499700   4.244817   4.919907   0.000000
    20  H    5.850586   2.468141   4.245076   2.424392   0.000000
    21  H    2.423713   6.633960   4.695791   5.878487   7.091574
    22  H    6.633960   9.068699   8.134137   5.843344   8.135521
    23  H    7.091574   8.135521   7.878743   4.202540   6.626638
    24  H    5.878487   5.843344   6.002262   1.778227   4.202540
                   21         22         23         24
    21  H    0.000000
    22  H    4.693560   0.000000
    23  H    5.850586   2.468141   0.000000
    24  H    5.499700   4.244817   2.424392   0.000000
 Stoichiometry    C14H10
 Framework group  C2V[SGV(C14H10)]
 Deg. of freedom    23
 Full point group                 C2V     NOp   4
 Largest Abelian subgroup         C2V     NOp   4
 Largest concise Abelian subgroup C2      NOp   2
                         Standard orientation:                         
 ---------------------------------------------------------------------
 Center     Atomic      Atomic             Coordinates (Angstroms)
 Number     Number       Type             X           Y           Z
 ---------------------------------------------------------------------
      1          6           0        0.000000    3.464352   -0.310522
      2          6           0        0.000000    2.787710    0.866075
      3          6           0        0.000000    1.387973    0.867599
      4          6           0        0.000000    0.698825   -0.346212
      5          6           0        0.000000    1.412495   -1.549903
      6          6           0        0.000000    2.769283   -1.531717
      7          6           0        0.000000    0.679475    2.078906
      8          6           0        0.000000   -0.698825   -0.346212
      9          6           0        0.000000   -1.387973    0.867599
     10          6           0        0.000000   -0.679475    2.078906
     11          6           0        0.000000   -2.787710    0.866075
     12          1           0        0.000000   -3.324003    1.791975
     13          6           0        0.000000   -3.464352   -0.310522
     14          6           0        0.000000   -2.769283   -1.531717
     15          6           0        0.000000   -1.412495   -1.549903
     16          1           0        0.000000    1.211856    3.007060
     17          1           0        0.000000    4.534349   -0.308139
     18          1           0        0.000000    3.324003    1.791975
     19          1           0        0.000000    0.889113   -2.483162
     20          1           0        0.000000    3.313319   -2.453088
     21          1           0        0.000000   -1.211856    3.007060
     22          1           0        0.000000   -4.534349   -0.308139
     23          1           0        0.000000   -3.313319   -2.453088
     24          1           0        0.000000   -0.889113   -2.483162
 ---------------------------------------------------------------------
 Rotational constants (GHZ):           1.6387797           0.5836309           0.4303626
 Standard basis: 6-31G(d) (6D, 7F)
 AO basis set in the form of general basis input (Overlap normalization):
      1 0
 S   6 1.00       0.000000000000
      0.3047524880D+04  0.1834737132D-02
      0.4573695180D+03  0.1403732281D-01
      0.1039486850D+03  0.6884262226D-01
      0.2921015530D+02  0.2321844432D+00
      0.9286662960D+01  0.4679413484D+00
      0.3163926960D+01  0.3623119853D+00
 SP   3 1.00       0.000000000000
      0.7868272350D+01 -0.1193324198D+00  0.6899906659D-01
      0.1881288540D+01 -0.1608541517D+00  0.3164239610D+00
      0.5442492580D+00  0.1143456438D+01  0.7443082909D+00
 SP   1 1.00       0.000000000000
      0.1687144782D+00  0.1000000000D+01  0.1000000000D+01
 D   1 1.00       0.000000000000
      0.8000000000D+00  0.1000000000D+01
 ****
      2 0
 S   6 1.00       0.000000000000
      0.3047524880D+04  0.1834737132D-02
      0.4573695180D+03  0.1403732281D-01
      0.1039486850D+03  0.6884262226D-01
      0.2921015530D+02  0.2321844432D+00
      0.9286662960D+01  0.4679413484D+00
      0.3163926960D+01  0.3623119853D+00
 SP   3 1.00       0.000000000000
      0.7868272350D+01 -0.1193324198D+00  0.6899906659D-01
      0.1881288540D+01 -0.1608541517D+00  0.3164239610D+00
      0.5442492580D+00  0.1143456438D+01  0.7443082909D+00
 SP   1 1.00       0.000000000000
      0.1687144782D+00  0.1000000000D+01  0.1000000000D+01
 D   1 1.00       0.000000000000
      0.8000000000D+00  0.1000000000D+01
 ****
      3 0
 S   6 1.00       0.000000000000
      0.3047524880D+04  0.1834737132D-02
      0.4573695180D+03  0.1403732281D-01
      0.1039486850D+03  0.6884262226D-01
      0.2921015530D+02  0.2321844432D+00
      0.9286662960D+01  0.4679413484D+00
      0.3163926960D+01  0.3623119853D+00
 SP   3 1.00       0.000000000000
      0.7868272350D+01 -0.1193324198D+00  0.6899906659D-01
      0.1881288540D+01 -0.1608541517D+00  0.3164239610D+00
      0.5442492580D+00  0.1143456438D+01  0.7443082909D+00
 SP   1 1.00       0.000000000000
      0.1687144782D+00  0.1000000000D+01  0.1000000000D+01
 D   1 1.00       0.000000000000
      0.8000000000D+00  0.1000000000D+01
 ****
      4 0
 S   6 1.00       0.000000000000
      0.3047524880D+04  0.1834737132D-02
      0.4573695180D+03  0.1403732281D-01
      0.1039486850D+03  0.6884262226D-01
      0.2921015530D+02  0.2321844432D+00
      0.9286662960D+01  0.4679413484D+00
      0.3163926960D+01  0.3623119853D+00
 SP   3 1.00       0.000000000000
      0.7868272350D+01 -0.1193324198D+00  0.6899906659D-01
      0.1881288540D+01 -0.1608541517D+00  0.3164239610D+00
      0.5442492580D+00  0.1143456438D+01  0.7443082909D+00
 SP   1 1.00       0.000000000000
      0.1687144782D+00  0.1000000000D+01  0.1000000000D+01
 D   1 1.00       0.000000000000
      0.8000000000D+00  0.1000000000D+01
 ****
      5 0
 S   6 1.00       0.000000000000
      0.3047524880D+04  0.1834737132D-02
      0.4573695180D+03  0.1403732281D-01
      0.1039486850D+03  0.6884262226D-01
      0.2921015530D+02  0.2321844432D+00
      0.9286662960D+01  0.4679413484D+00
      0.3163926960D+01  0.3623119853D+00
 SP   3 1.00       0.000000000000
      0.7868272350D+01 -0.1193324198D+00  0.6899906659D-01
      0.1881288540D+01 -0.1608541517D+00  0.3164239610D+00
      0.5442492580D+00  0.1143456438D+01  0.7443082909D+00
 SP   1 1.00       0.000000000000
      0.1687144782D+00  0.1000000000D+01  0.1000000000D+01
 D   1 1.00       0.000000000000
      0.8000000000D+00  0.1000000000D+01
 ****
      6 0
 S   6 1.00       0.000000000000
      0.3047524880D+04  0.1834737132D-02
      0.4573695180D+03  0.1403732281D-01
      0.1039486850D+03  0.6884262226D-01
      0.2921015530D+02  0.2321844432D+00
      0.9286662960D+01  0.4679413484D+00
      0.3163926960D+01  0.3623119853D+00
 SP   3 1.00       0.000000000000
      0.7868272350D+01 -0.1193324198D+00  0.6899906659D-01
      0.1881288540D+01 -0.1608541517D+00  0.3164239610D+00
      0.5442492580D+00  0.1143456438D+01  0.7443082909D+00
 SP   1 1.00       0.000000000000
      0.1687144782D+00  0.1000000000D+01  0.1000000000D+01
 D   1 1.00       0.000000000000
      0.8000000000D+00  0.1000000000D+01
 ****
      7 0
 S   6 1.00       0.000000000000
      0.3047524880D+04  0.1834737132D-02
      0.4573695180D+03  0.1403732281D-01
      0.1039486850D+03  0.6884262226D-01
      0.2921015530D+02  0.2321844432D+00
      0.9286662960D+01  0.4679413484D+00
      0.3163926960D+01  0.3623119853D+00
 SP   3 1.00       0.000000000000
      0.7868272350D+01 -0.1193324198D+00  0.6899906659D-01
      0.1881288540D+01 -0.1608541517D+00  0.3164239610D+00
      0.5442492580D+00  0.1143456438D+01  0.7443082909D+00
 SP   1 1.00       0.000000000000
      0.1687144782D+00  0.1000000000D+01  0.1000000000D+01
 D   1 1.00       0.000000000000
      0.8000000000D+00  0.1000000000D+01
 ****
      8 0
 S   6 1.00       0.000000000000
      0.3047524880D+04  0.1834737132D-02
      0.4573695180D+03  0.1403732281D-01
      0.1039486850D+03  0.6884262226D-01
      0.2921015530D+02  0.2321844432D+00
      0.9286662960D+01  0.4679413484D+00
      0.3163926960D+01  0.3623119853D+00
 SP   3 1.00       0.000000000000
      0.7868272350D+01 -0.1193324198D+00  0.6899906659D-01
      0.1881288540D+01 -0.1608541517D+00  0.3164239610D+00
      0.5442492580D+00  0.1143456438D+01  0.7443082909D+00
 SP   1 1.00       0.000000000000
      0.1687144782D+00  0.1000000000D+01  0.1000000000D+01
 D   1 1.00       0.000000000000
      0.8000000000D+00  0.1000000000D+01
 ****
      9 0
 S   6 1.00       0.000000000000
      0.3047524880D+04  0.1834737132D-02
      0.4573695180D+03  0.1403732281D-01
      0.1039486850D+03  0.6884262226D-01
      0.2921015530D+02  0.2321844432D+00
      0.9286662960D+01  0.4679413484D+00
      0.3163926960D+01  0.3623119853D+00
 SP   3 1.00       0.000000000000
      0.7868272350D+01 -0.1193324198D+00  0.6899906659D-01
      0.1881288540D+01 -0.1608541517D+00  0.3164239610D+00
      0.5442492580D+00  0.1143456438D+01  0.7443082909D+00
 SP   1 1.00       0.000000000000
      0.1687144782D+00  0.1000000000D+01  0.1000000000D+01
 D   1 1.00       0.000000000000
      0.8000000000D+00  0.1000000000D+01
 ****
     10 0
 S   6 1.00       0.000000000000
      0.3047524880D+04  0.1834737132D-02
      0.4573695180D+03  0.1403732281D-01
      0.1039486850D+03  0.6884262226D-01
      0.2921015530D+02  0.2321844432D+00
      0.9286662960D+01  0.4679413484D+00
      0.3163926960D+01  0.3623119853D+00
 SP   3 1.00       0.000000000000
      0.7868272350D+01 -0.1193324198D+00  0.6899906659D-01
      0.1881288540D+01 -0.1608541517D+00  0.3164239610D+00
      0.5442492580D+00  0.1143456438D+01  0.7443082909D+00
 SP   1 1.00       0.000000000000
      0.1687144782D+00  0.1000000000D+01  0.1000000000D+01
 D   1 1.00       0.000000000000
      0.8000000000D+00  0.1000000000D+01
 ****
     11 0
 S   6 1.00       0.000000000000
      0.3047524880D+04  0.1834737132D-02
      0.4573695180D+03  0.1403732281D-01
      0.1039486850D+03  0.6884262226D-01
      0.2921015530D+02  0.2321844432D+00
      0.9286662960D+01  0.4679413484D+00
      0.3163926960D+01  0.3623119853D+00
 SP   3 1.00       0.000000000000
      0.7868272350D+01 -0.1193324198D+00  0.6899906659D-01
      0.1881288540D+01 -0.1608541517D+00  0.3164239610D+00
      0.5442492580D+00  0.1143456438D+01  0.7443082909D+00
 SP   1 1.00       0.000000000000
      0.1687144782D+00  0.1000000000D+01  0.1000000000D+01
 D   1 1.00       0.000000000000
      0.8000000000D+00  0.1000000000D+01
 ****
     12 0
 S   3 1.00       0.000000000000
      0.1873113696D+02  0.3349460434D-01
      0.2825394365D+01  0.2347269535D+00
      0.6401216923D+00  0.8137573261D+00
 S   1 1.00       0.000000000000
      0.1612777588D+00  0.1000000000D+01
 ****
     13 0
 S   6 1.00       0.000000000000
      0.3047524880D+04  0.1834737132D-02
      0.4573695180D+03  0.1403732281D-01
      0.1039486850D+03  0.6884262226D-01
      0.2921015530D+02  0.2321844432D+00
      0.9286662960D+01  0.4679413484D+00
      0.3163926960D+01  0.3623119853D+00
 SP   3 1.00       0.000000000000
      0.7868272350D+01 -0.1193324198D+00  0.6899906659D-01
      0.1881288540D+01 -0.1608541517D+00  0.3164239610D+00
      0.5442492580D+00  0.1143456438D+01  0.7443082909D+00
 SP   1 1.00       0.000000000000
      0.1687144782D+00  0.1000000000D+01  0.1000000000D+01
 D   1 1.00       0.000000000000
      0.8000000000D+00  0.1000000000D+01
 ****
     14 0
 S   6 1.00       0.000000000000
      0.3047524880D+04  0.1834737132D-02
      0.4573695180D+03  0.1403732281D-01
      0.1039486850D+03  0.6884262226D-01
      0.2921015530D+02  0.2321844432D+00
      0.9286662960D+01  0.4679413484D+00
      0.3163926960D+01  0.3623119853D+00
 SP   3 1.00       0.000000000000
      0.7868272350D+01 -0.1193324198D+00  0.6899906659D-01
      0.1881288540D+01 -0.1608541517D+00  0.3164239610D+00
      0.5442492580D+00  0.1143456438D+01  0.7443082909D+00
 SP   1 1.00       0.000000000000
      0.1687144782D+00  0.1000000000D+01  0.1000000000D+01
 D   1 1.00       0.000000000000
      0.8000000000D+00  0.1000000000D+01
 ****
     15 0
 S   6 1.00       0.000000000000
      0.3047524880D+04  0.1834737132D-02
      0.4573695180D+03  0.1403732281D-01
      0.1039486850D+03  0.6884262226D-01
      0.2921015530D+02  0.2321844432D+00
      0.9286662960D+01  0.4679413484D+00
      0.3163926960D+01  0.3623119853D+00
 SP   3 1.00       0.000000000000
      0.7868272350D+01 -0.1193324198D+00  0.6899906659D-01
      0.1881288540D+01 -0.1608541517D+00  0.3164239610D+00
      0.5442492580D+00  0.1143456438D+01  0.7443082909D+00
 SP   1 1.00       0.000000000000
      0.1687144782D+00  0.1000000000D+01  0.1000000000D+01
 D   1 1.00       0.000000000000
      0.8000000000D+00  0.1000000000D+01
 ****
     16 0
 S   3 1.00       0.000000000000
      0.1873113696D+02  0.3349460434D-01
      0.2825394365D+01  0.2347269535D+00
      0.6401216923D+00  0.8137573261D+00
 S   1 1.00       0.000000000000
      0.1612777588D+00  0.1000000000D+01
 ****
     17 0
 S   3 1.00       0.000000000000
      0.1873113696D+02  0.3349460434D-01
      0.2825394365D+01  0.2347269535D+00
      0.6401216923D+00  0.8137573261D+00
 S   1 1.00       0.000000000000
      0.1612777588D+00  0.1000000000D+01
 ****
     18 0
 S   3 1.00       0.000000000000
      0.1873113696D+02  0.3349460434D-01
      0.2825394365D+01  0.2347269535D+00
      0.6401216923D+00  0.8137573261D+00
 S   1 1.00       0.000000000000
      0.1612777588D+00  0.1000000000D+01
 ****
     19 0
 S   3 1.00       0.000000000000
      0.1873113696D+02  0.3349460434D-01
      0.2825394365D+01  0.2347269535D+00
      0.6401216923D+00  0.8137573261D+00
 S   1 1.00       0.000000000000
      0.1612777588D+00  0.1000000000D+01
 ****
     20 0
 S   3 1.00       0.000000000000
      0.1873113696D+02  0.3349460434D-01
      0.2825394365D+01  0.2347269535D+00
      0.6401216923D+00  0.8137573261D+00
 S   1 1.00       0.000000000000
      0.1612777588D+00  0.1000000000D+01
 ****
     21 0
 S   3 1.00       0.000000000000
      0.1873113696D+02  0.3349460434D-01
      0.2825394365D+01  0.2347269535D+00
      0.6401216923D+00  0.8137573261D+00
 S   1 1.00       0.000000000000
      0.1612777588D+00  0.1000000000D+01
 ****
     22 0
 S   3 1.00       0.000000000000
      0.1873113696D+02  0.3349460434D-01
      0.2825394365D+01  0.2347269535D+00
      0.6401216923D+00  0.8137573261D+00
 S   1 1.00       0.000000000000
      0.1612777588D+00  0.1000000000D+01
 ****
     23 0
 S   3 1.00       0.000000000000
      0.1873113696D+02  0.3349460434D-01
      0.2825394365D+01  0.2347269535D+00
      0.6401216923D+00  0.8137573261D+00
 S   1 1.00       0.000000000000
      0.1612777588D+00  0.1000000000D+01
 ****
     24 0
 S   3 1.00       0.000000000000
      0.1873113696D+02  0.3349460434D-01
      0.2825394365D+01  0.2347269535D+00
      0.6401216923D+00  0.8137573261D+00
 S   1 1.00       0.000000000000
      0.1612777588D+00  0.1000000000D+01
 ****

 There are    87 symmetry adapted cartesian basis functions of A1  symmetry.
 There are    28 symmetry adapted cartesian basis functions of A2  symmetry.
 There are    28 symmetry adapted cartesian basis functions of B1  symmetry.
 There are    87 symmetry adapted cartesian basis functions of B2  symmetry.
 There are    87 symmetry adapted basis functions of A1  symmetry.
 There are    28 symmetry adapted basis functions of A2  symmetry.
 There are    28 symmetry adapted basis functions of B1  symmetry.
 There are    87 symmetry adapted basis functions of B2  symmetry.
   230 basis functions,   432 primitive gaussians,   230 cartesian basis functions
    47 alpha electrons       47 beta electrons
       nuclear repulsion energy       789.4047582604 Hartrees.
 NAtoms=   24 NActive=   24 NUniq=   12 SFac= 4.00D+00 NAtFMM=   60 NAOKFM=F Big=F
 Integral buffers will be    262144 words long.
 Raffenetti 2 integral format.
 Two-electron integral symmetry is turned on.
 One-electron integrals computed using PRISM.
 NBasis=   230 RedAO= T EigKep=  1.70D-04  NBF=    87    28    28    87
 NBsUse=   230 1.00D-06 EigRej= -1.00D+00 NBFU=    87    28    28    87
 ExpMin= 1.61D-01 ExpMax= 3.05D+03 ExpMxC= 4.57D+02 IAcc=3 IRadAn=         5 AccDes= 0.00D+00
 Harris functional with IExCor=  402 and IRadAn=       5 diagonalized for initial guess.
 HarFok:  IExCor=  402 AccDes= 0.00D+00 IRadAn=         5 IDoV= 1 UseB2=F ITyADJ=14
 ICtDFT=  3500011 ScaDFX=  1.000000  1.000000  1.000000  1.000000
 FoFCou: FMM=F IPFlag=           0 FMFlag=      100000 FMFlg1=           0
         NFxFlg=           0 DoJE=T BraDBF=F KetDBF=T FulRan=T
         wScrn=  0.000000 ICntrl=       500 IOpCl=  0 I1Cent=   200000004 NGrid=           0
         NMat0=    1 NMatS0=      1 NMatT0=    0 NMatD0=    1 NMtDS0=    0 NMtDT0=    0
 Petite list used in FoFCou.
 Initial guess orbital symmetries:
       Occupied  (B2) (A1) (B2) (A1) (A1) (B2) (A1) (B2) (A1) (B2)
                 (A1) (B2) (A1) (B2) (A1) (B2) (A1) (A1) (B2) (B2)
                 (A1) (A1) (B2) (A1) (B2) (A1) (B2) (A1) (A1) (B2)
                 (B2) (A1) (A1) (B2) (A1) (B2) (B1) (A1) (B2) (A1)
                 (A2) (B2) (B1) (B1) (A2) (A2) (B1)
       Virtual   (A2) (B1) (B1) (A2) (A2) (B1) (A1) (A1) (B2) (A1)
                 (B2) (A2) (A1) (B2) (A1) (B2) (A1) (B2) (B2) (A1)
                 (B2) (A1) (A1) (A1) (B2) (B2) (B2) (B2) (A1) (B2)
                 (A1) (B1) (A1) (A2) (A1) (B2) (B1) (A1) (B2) (A1)
                 (B2) (B1) (A2) (A1) (B2) (B2) (A1) (B2) (A1) (A1)
                 (B1) (A2) (B2) (B1) (B1) (A2) (A2) (A2) (A1) (B2)
                 (B1) (B2) (A1) (A1) (B2) (A1) (B2) (A2) (A1) (B2)
                 (B2) (A1) (A1) (B2) (A1) (B2) (B2) (B2) (A1) (A1)
                 (B2) (A1) (A1) (B2) (B1) (B2) (B1) (A2) (A1) (B2)
                 (A1) (B1) (B2) (A2) (B1) (A2) (B1) (B1) (A2) (A2)
                 (A1) (B1) (B2) (B2) (A1) (A1) (B2) (B2) (A1) (A1)
                 (A1) (B2) (A2) (B1) (B2) (A1) (A1) (A1) (B2) (B2)
                 (A1) (A1) (B2) (A2) (B2) (B2) (A1) (B1) (A1) (B2)
                 (A1) (B2) (A2) (B1) (A2) (B1) (B2) (A1) (B1) (A1)
                 (A2) (A2) (B1) (B2) (A2) (B2) (A1) (B2) (A1) (B1)
                 (B2) (A2) (A1) (B2) (A1) (A2) (A1) (A1) (B2) (B2)
                 (A1) (B2) (B2) (B2) (A1) (B2) (A1) (B2) (B2) (A1)
                 (B2) (A1) (A1) (B2) (A1) (B2) (B2) (A1) (A1) (B2)
                 (B2) (A1) (B2)
 The electronic state of the initial guess is 1-A1.
 Requested convergence on RMS density matrix=1.00D-08 within 128 cycles.
 Requested convergence on MAX density matrix=1.00D-06.
 Requested convergence on             energy=1.00D-06.
 No special actions if energy rises.
 Integral accuracy reduced to 1.0D-05 until final iterations.
 Initial convergence to 1.0D-05 achieved.  Increase integral accuracy.
 SCF Done:  E(RB3LYP) =  -539.524943851     A.U. after   13 cycles
            NFock= 13  Conv=0.79D-08     -V/T= 2.0077
 DoSCS=F DFT=T ScalE2(SS,OS)=  1.000000  1.000000
 Range of M.O.s used for correlation:     1   230
 NBasis=   230 NAE=    47 NBE=    47 NFC=     0 NFV=     0
 NROrb=    230 NOA=    47 NOB=    47 NVA=   183 NVB=   183

 **** Warning!!: The largest alpha MO coefficient is  0.13801072D+02

 Symmetrizing basis deriv contribution to polar:
 IMax=3 JMax=2 DiffMx= 0.00D+00
 G2DrvN: will do    25 centers at a time, making    1 passes.
 Calling FoFCou, ICntrl=  3107 FMM=F I1Cent=   0 AccDes= 0.00D+00.
 End of G2Drv F.D. properties file   721 does not exist.
 End of G2Drv F.D. properties file   722 does not exist.
 End of G2Drv F.D. properties file   788 does not exist.
          IDoAtm=111111111111111111111111
          Differentiating once with respect to electric field.
                with respect to dipole field.
          Differentiating once with respect to nuclear coordinates.
 CalDSu exits because no D1Ps are significant.
          There are    39 degrees of freedom in the 1st order CPHF.  IDoFFX=4 NUNeed=    39.
     39 vectors produced by pass  0 Test12= 2.21D-14 2.56D-09 XBig12= 3.76D+02 1.29D+01.
 AX will form    39 AO Fock derivatives at one time.
     39 vectors produced by pass  1 Test12= 2.21D-14 2.56D-09 XBig12= 6.20D+01 1.47D+00.
     39 vectors produced by pass  2 Test12= 2.21D-14 2.56D-09 XBig12= 2.87D+00 2.27D-01.
     39 vectors produced by pass  3 Test12= 2.21D-14 2.56D-09 XBig12= 5.04D-02 2.42D-02.
     39 vectors produced by pass  4 Test12= 2.21D-14 2.56D-09 XBig12= 4.02D-04 2.44D-03.
     39 vectors produced by pass  5 Test12= 2.21D-14 2.56D-09 XBig12= 1.49D-06 1.19D-04.
     21 vectors produced by pass  6 Test12= 2.21D-14 2.56D-09 XBig12= 3.21D-09 6.86D-06.
      3 vectors produced by pass  7 Test12= 2.21D-14 2.56D-09 XBig12= 5.09D-12 2.63D-07.
      2 vectors produced by pass  8 Test12= 2.21D-14 2.56D-09 XBig12= 6.28D-15 7.60D-09.
 InvSVY:  IOpt=1 It=  1 EMax= 1.83D-15
 Solved reduced A of dimension   260 with    39 vectors.
 Isotropic polarizability for W=    0.000000      140.13 Bohr**3.
 End of Minotr F.D. properties file   721 does not exist.
 End of Minotr F.D. properties file   722 does not exist.
 End of Minotr F.D. properties file   788 does not exist.

 **********************************************************************

            Population analysis using the SCF density.

 **********************************************************************

 Orbital symmetries:
       Occupied  (A1) (B2) (A1) (B2) (B2) (A1) (A1) (B2) (A1) (B2)
                 (B2) (A1) (B2) (A1) (A1) (B2) (A1) (A1) (B2) (B2)
                 (A1) (A1) (B2) (A1) (B2) (A1) (B2) (A1) (B2) (A1)
                 (A1) (B2) (A1) (B2) (B1) (A1) (B2) (A1) (A2) (B2)
                 (A1) (B2) (B1) (B1) (A2) (A2) (B1)
       Virtual   (A2) (B1) (B1) (A2) (A2) (A1) (A1) (B2) (A1) (B2)
                 (B1) (A1) (B2) (A1) (B2) (A2) (A1) (B2) (B2) (A1)
                 (B2) (A1) (A1) (B2) (A1) (B2) (B2) (A1) (B1) (A1)
                 (B2) (B2) (A2) (B1) (A1) (A1) (A1) (B2) (B1) (B2)
                 (A2) (B2) (A1) (A1) (B2) (A1) (A1) (B2) (A2) (B1)
                 (B2) (A1) (B1) (B2) (B1) (A2) (A2) (A2) (B1) (A1)
                 (B2) (A1) (B2) (A1) (B2) (A1) (A2) (B2) (A1) (B2)
                 (B2) (A1) (B2) (A1) (A1) (B2) (B2) (A1) (B2) (A1)
                 (B2) (A1) (B2) (A1) (B2) (B1) (A1) (B1) (A1) (B2)
                 (A2) (B2) (B1) (A2) (B1) (A1) (A2) (B1) (B2) (B1)
                 (A2) (A2) (B2) (B1) (A1) (A1) (B2) (B2) (A1) (A1)
                 (A1) (A2) (B2) (B1) (B2) (A1) (A1) (B2) (A1) (A1)
                 (B2) (B2) (A1) (A2) (B2) (B2) (A1) (B1) (A1) (B2)
                 (A1) (B2) (A2) (B1) (A2) (B1) (B2) (A1) (B1) (A1)
                 (A2) (A2) (B1) (B2) (A2) (B2) (A1) (B2) (B1) (A1)
                 (A2) (B2) (A1) (B2) (A1) (A2) (A1) (B2) (A1) (B2)
                 (A1) (B2) (B2) (B2) (A1) (B2) (A1) (B2) (B2) (A1)
                 (B2) (A1) (B2) (A1) (A1) (B2) (B2) (A1) (A1) (B2)
                 (B2) (A1) (B2)
 The electronic state is 1-A1.
 Alpha  occ. eigenvalues --  -10.18640 -10.18637 -10.18552 -10.18502 -10.18226
 Alpha  occ. eigenvalues --  -10.18226 -10.18182 -10.18151 -10.18151 -10.18109
 Alpha  occ. eigenvalues --  -10.18058 -10.18058 -10.18009 -10.18009  -0.89161
 Alpha  occ. eigenvalues --   -0.85180  -0.81174  -0.78231  -0.75798  -0.72271
 Alpha  occ. eigenvalues --   -0.71864  -0.63445  -0.62519  -0.61564  -0.58234
 Alpha  occ. eigenvalues --   -0.53401  -0.52972  -0.49839  -0.47841  -0.47840
 Alpha  occ. eigenvalues --   -0.43769  -0.43504  -0.42527  -0.41911  -0.40647
 Alpha  occ. eigenvalues --   -0.40425  -0.39341  -0.36146  -0.35949  -0.35941
 Alpha  occ. eigenvalues --   -0.32848  -0.32234  -0.31456  -0.28525  -0.26214
 Alpha  occ. eigenvalues --   -0.22006  -0.21053
 Alpha virt. eigenvalues --   -0.03164  -0.02580   0.01314   0.04527   0.09053
 Alpha virt. eigenvalues --    0.09816   0.10923   0.11293   0.15265   0.15453
 Alpha virt. eigenvalues --    0.15682   0.17076   0.17720   0.19040   0.20561
 Alpha virt. eigenvalues --    0.24370   0.25524   0.25803   0.28187   0.28954
 Alpha virt. eigenvalues --    0.30923   0.31671   0.33226   0.33666   0.34764
 Alpha virt. eigenvalues --    0.39676   0.41549   0.47012   0.50507   0.50992
 Alpha virt. eigenvalues --    0.51159   0.52315   0.53190   0.54852   0.55118
 Alpha virt. eigenvalues --    0.55806   0.57033   0.57553   0.57857   0.58176
 Alpha virt. eigenvalues --    0.58872   0.59219   0.59839   0.60538   0.62145
 Alpha virt. eigenvalues --    0.62200   0.63057   0.63363   0.63821   0.63845
 Alpha virt. eigenvalues --    0.64370   0.64907   0.65015   0.68147   0.69350
 Alpha virt. eigenvalues --    0.70313   0.74391   0.76748   0.80890   0.81156
 Alpha virt. eigenvalues --    0.83612   0.84479   0.84769   0.84996   0.86611
 Alpha virt. eigenvalues --    0.86855   0.89219   0.90227   0.91028   0.93007
 Alpha virt. eigenvalues --    0.94012   0.96428   0.96917   0.97311   0.99432
 Alpha virt. eigenvalues --    1.01644   1.02499   1.05723   1.06862   1.08399
 Alpha virt. eigenvalues --    1.10466   1.12612   1.17687   1.19379   1.21617
 Alpha virt. eigenvalues --    1.22873   1.23532   1.24370   1.25648   1.26733
 Alpha virt. eigenvalues --    1.27166   1.33669   1.36947   1.40659   1.42930
 Alpha virt. eigenvalues --    1.45715   1.46684   1.47171   1.47645   1.49586
 Alpha virt. eigenvalues --    1.50008   1.50452   1.51201   1.51236   1.52287
 Alpha virt. eigenvalues --    1.53747   1.55330   1.65958   1.72211   1.77220
 Alpha virt. eigenvalues --    1.78653   1.81309   1.83493   1.86730   1.89953
 Alpha virt. eigenvalues --    1.91136   1.93773   1.94036   1.95427   1.97381
 Alpha virt. eigenvalues --    1.97640   1.99176   2.00665   2.02602   2.03522
 Alpha virt. eigenvalues --    2.05118   2.05929   2.10336   2.14185   2.15096
 Alpha virt. eigenvalues --    2.19960   2.20118   2.21860   2.22522   2.24187
 Alpha virt. eigenvalues --    2.25511   2.27944   2.30635   2.32745   2.32854
 Alpha virt. eigenvalues --    2.33511   2.36676   2.38263   2.39572   2.41841
 Alpha virt. eigenvalues --    2.46486   2.55840   2.62724   2.64913   2.66628
 Alpha virt. eigenvalues --    2.66665   2.67683   2.68094   2.69965   2.72727
 Alpha virt. eigenvalues --    2.75318   2.78991   2.83390   2.85068   2.87204
 Alpha virt. eigenvalues --    2.89045   2.93174   2.94476   3.01826   3.05467
 Alpha virt. eigenvalues --    3.18226   3.42061   3.49814   3.61296   4.11193
 Alpha virt. eigenvalues --    4.11355   4.11949   4.13158   4.13251   4.15373
 Alpha virt. eigenvalues --    4.15910   4.27210   4.30030   4.38824   4.42873
 Alpha virt. eigenvalues --    4.49093   4.66116   4.92733
     Molecular Orbital Coefficients:
                           1         2         3         4         5
                        (A1)--O   (B2)--O   (A1)--O   (B2)--O   (B2)--O
     Eigenvalues --   -10.18640 -10.18637 -10.18552 -10.18502 -10.18226
   1 1   C  1S          0.00215   0.00222  -0.00139  -0.00120   0.22082
   2        2S          0.00010   0.00008  -0.00019  -0.00017   0.01067
   3        2PX         0.00000   0.00000   0.00000   0.00000   0.00000
   4        2PY         0.00002   0.00001   0.00001   0.00000   0.00010
   5        2PZ        -0.00002  -0.00001   0.00001  -0.00001   0.00015
   6        3S         -0.00176  -0.00073   0.00221   0.00278   0.00226
   7        3PX         0.00000   0.00000   0.00000   0.00000   0.00000
   8        3PY         0.00099   0.00043  -0.00126  -0.00141  -0.00214
   9        3PZ         0.00000   0.00004   0.00007   0.00007  -0.00097
  10        4XX        -0.00002  -0.00002  -0.00003  -0.00003  -0.00229
  11        4YY         0.00003   0.00002  -0.00001  -0.00001  -0.00224
  12        4ZZ         0.00001   0.00003   0.00001  -0.00001  -0.00236
  13        4XY         0.00000   0.00000   0.00000   0.00000   0.00000
  14        4XZ         0.00000   0.00000   0.00000   0.00000   0.00000
  15        4YZ        -0.00003  -0.00003   0.00001   0.00001  -0.00006
  16 2   C  1S          0.03113   0.03238  -0.01274  -0.00908   0.05279
  17        2S          0.00119   0.00133  -0.00054  -0.00032   0.00260
  18        2PX         0.00000   0.00000   0.00000   0.00000   0.00000
  19        2PY         0.00022   0.00028  -0.00009  -0.00008  -0.00004
  20        2PZ         0.00004   0.00003  -0.00001  -0.00001   0.00009
  21        3S          0.00421   0.00204  -0.00259  -0.00177  -0.00272
  22        3PX         0.00000   0.00000   0.00000   0.00000   0.00000
  23        3PY        -0.00171  -0.00096   0.00074   0.00041   0.00119
  24        3PZ        -0.00119  -0.00042   0.00134   0.00179   0.00075
  25        4XX        -0.00043  -0.00042   0.00017   0.00015  -0.00053
  26        4YY        -0.00060  -0.00065   0.00030   0.00025  -0.00055
  27        4ZZ        -0.00044  -0.00049   0.00020   0.00017  -0.00051
  28        4XY         0.00000   0.00000   0.00000   0.00000   0.00000
  29        4XZ         0.00000   0.00000   0.00000   0.00000   0.00000
  30        4YZ         0.00002   0.00001   0.00002  -0.00001   0.00000
  31 3   C  1S          0.66209   0.68521  -0.22726  -0.14479  -0.00225
  32        2S          0.03338   0.03478  -0.01188  -0.00784  -0.00018
  33        2PX         0.00000   0.00000   0.00000   0.00000   0.00000
  34        2PY         0.00003  -0.00008   0.00014   0.00016  -0.00006
  35        2PZ         0.00002   0.00002   0.00023   0.00026   0.00004
  36        3S         -0.01189  -0.01518   0.00875   0.01208  -0.00002
  37        3PX         0.00000   0.00000   0.00000   0.00000   0.00000
  38        3PY        -0.00062   0.00297  -0.00055  -0.00355   0.00239
  39        3PZ         0.00143   0.00026  -0.00290  -0.00371  -0.00077
  40        4XX        -0.00645  -0.00661   0.00209   0.00123   0.00000
  41        4YY        -0.00621  -0.00641   0.00193   0.00106   0.00003
  42        4ZZ        -0.00624  -0.00645   0.00188   0.00100   0.00000
  43        4XY         0.00000   0.00000   0.00000   0.00000   0.00000
  44        4XZ         0.00000   0.00000   0.00000   0.00000   0.00000
  45        4YZ        -0.00004  -0.00003  -0.00002  -0.00007  -0.00001
  46 4   C  1S          0.22763   0.14488   0.66297   0.68594  -0.01030
  47        2S          0.01101   0.00696   0.03351   0.03544  -0.00056
  48        2PX         0.00000   0.00000   0.00000   0.00000   0.00000
  49        2PY        -0.00008  -0.00017   0.00029  -0.00029  -0.00005
  50        2PZ        -0.00021  -0.00023   0.00013   0.00013  -0.00001
  51        3S          0.00254   0.00443  -0.01194  -0.02320  -0.00002
  52        3PX         0.00000   0.00000   0.00000   0.00000   0.00000
  53        3PY         0.00156  -0.00036  -0.00285   0.00123  -0.00150
  54        3PZ         0.00151   0.00418  -0.00110  -0.00395   0.00202
  55        4XX        -0.00237  -0.00154  -0.00649  -0.00644   0.00010
  56        4YY        -0.00237  -0.00156  -0.00644  -0.00597   0.00008
  57        4ZZ        -0.00243  -0.00162  -0.00629  -0.00611   0.00011
  58        4XY         0.00000   0.00000   0.00000   0.00000   0.00000
  59        4XZ         0.00000   0.00000   0.00000   0.00000   0.00000
  60        4YZ        -0.00006  -0.00005   0.00001   0.00000  -0.00002
  61 5   C  1S          0.00972   0.00624   0.03315   0.03812   0.11301
  62        2S          0.00038   0.00025   0.00131   0.00159   0.00521
  63        2PX         0.00000   0.00000   0.00000   0.00000   0.00000
  64        2PY         0.00004  -0.00002   0.00010   0.00009  -0.00030
  65        2PZ        -0.00008  -0.00003  -0.00020  -0.00029  -0.00001
  66        3S         -0.00082   0.00114   0.00409   0.00392   0.00499
  67        3PX         0.00000   0.00000   0.00000   0.00000   0.00000
  68        3PY        -0.00109  -0.00047   0.00037   0.00039   0.00224
  69        3PZ        -0.00056   0.00044   0.00202   0.00242   0.00192
  70        4XX        -0.00012  -0.00007  -0.00044  -0.00050  -0.00123
  71        4YY        -0.00010  -0.00007  -0.00049  -0.00065  -0.00123
  72        4ZZ        -0.00012  -0.00004  -0.00056  -0.00073  -0.00123
  73        4XY         0.00000   0.00000   0.00000   0.00000   0.00000
  74        4XZ         0.00000   0.00000   0.00000   0.00000   0.00000
  75        4YZ         0.00001   0.00001   0.00007   0.00011   0.00002
  76 6   C  1S          0.00043   0.00019   0.00360   0.00481   0.65434
  77        2S         -0.00012  -0.00006   0.00021   0.00032   0.03288
  78        2PX         0.00000   0.00000   0.00000   0.00000   0.00000
  79        2PY         0.00001   0.00003   0.00001   0.00001  -0.00004
  80        2PZ        -0.00001  -0.00001   0.00001   0.00001   0.00007
  81        3S          0.00184   0.00056  -0.00213  -0.00258  -0.01149
  82        3PX         0.00000   0.00000   0.00000   0.00000   0.00000
  83        3PY        -0.00064  -0.00017   0.00059   0.00078   0.00172
  84        3PZ         0.00080   0.00025  -0.00102  -0.00156  -0.00224
  85        4XX        -0.00005  -0.00003  -0.00001  -0.00001  -0.00638
  86        4YY         0.00001   0.00000   0.00002   0.00003  -0.00620
  87        4ZZ         0.00000   0.00000  -0.00001  -0.00003  -0.00626
  88        4XY         0.00000   0.00000   0.00000   0.00000   0.00000
  89        4XZ         0.00000   0.00000   0.00000   0.00000   0.00000
  90        4YZ        -0.00001   0.00000  -0.00003   0.00000   0.00000
  91 7   C  1S          0.03683   0.03338  -0.01628  -0.00899  -0.00070
  92        2S          0.00152   0.00128  -0.00078  -0.00027  -0.00011
  93        2PX         0.00000   0.00000   0.00000   0.00000   0.00000
  94        2PY        -0.00008  -0.00011   0.00003   0.00003   0.00000
  95        2PZ         0.00024   0.00022  -0.00007  -0.00006  -0.00002
  96        3S          0.00164   0.00665  -0.00026  -0.00426   0.00201
  97        3PX         0.00000   0.00000   0.00000   0.00000   0.00000
  98        3PY         0.00028  -0.00071   0.00014   0.00190  -0.00046
  99        3PZ        -0.00081  -0.00342   0.00030   0.00216  -0.00101
 100        4XX        -0.00047  -0.00047   0.00018   0.00017  -0.00001
 101        4YY        -0.00050  -0.00059   0.00024   0.00021   0.00002
 102        4ZZ        -0.00061  -0.00061   0.00031   0.00023   0.00002
 103        4XY         0.00000   0.00000   0.00000   0.00000   0.00000
 104        4XZ         0.00000   0.00000   0.00000   0.00000   0.00000
 105        4YZ         0.00011   0.00007  -0.00005  -0.00004  -0.00001
 106 8   C  1S          0.22763  -0.14488   0.66297  -0.68594   0.01030
 107        2S          0.01101  -0.00696   0.03351  -0.03544   0.00056
 108        2PX         0.00000   0.00000   0.00000   0.00000   0.00000
 109        2PY         0.00008  -0.00017  -0.00029  -0.00029  -0.00005
 110        2PZ        -0.00021   0.00023   0.00013  -0.00013   0.00001
 111        3S          0.00254  -0.00443  -0.01194   0.02320   0.00002
 112        3PX         0.00000   0.00000   0.00000   0.00000   0.00000
 113        3PY        -0.00156  -0.00036   0.00285   0.00123  -0.00150
 114        3PZ         0.00151  -0.00418  -0.00110   0.00395  -0.00202
 115        4XX        -0.00237   0.00154  -0.00649   0.00644  -0.00010
 116        4YY        -0.00237   0.00156  -0.00644   0.00597  -0.00008
 117        4ZZ        -0.00243   0.00162  -0.00629   0.00611  -0.00011
 118        4XY         0.00000   0.00000   0.00000   0.00000   0.00000
 119        4XZ         0.00000   0.00000   0.00000   0.00000   0.00000
 120        4YZ         0.00006  -0.00005  -0.00001   0.00000  -0.00002
 121 9   C  1S          0.66209  -0.68521  -0.22726   0.14479   0.00225
 122        2S          0.03338  -0.03478  -0.01188   0.00784   0.00018
 123        2PX         0.00000   0.00000   0.00000   0.00000   0.00000
 124        2PY        -0.00003  -0.00008  -0.00014   0.00016  -0.00006
 125        2PZ         0.00002  -0.00002   0.00023  -0.00026  -0.00004
 126        3S         -0.01189   0.01518   0.00875  -0.01208   0.00002
 127        3PX         0.00000   0.00000   0.00000   0.00000   0.00000
 128        3PY         0.00062   0.00297   0.00055  -0.00355   0.00239
 129        3PZ         0.00143  -0.00026  -0.00290   0.00371   0.00077
 130        4XX        -0.00645   0.00661   0.00209  -0.00123   0.00000
 131        4YY        -0.00621   0.00641   0.00193  -0.00106  -0.00003
 132        4ZZ        -0.00624   0.00645   0.00188  -0.00100   0.00000
 133        4XY         0.00000   0.00000   0.00000   0.00000   0.00000
 134        4XZ         0.00000   0.00000   0.00000   0.00000   0.00000
 135        4YZ         0.00004  -0.00003   0.00002  -0.00007  -0.00001
 136 10  C  1S          0.03683  -0.03338  -0.01628   0.00899   0.00070
 137        2S          0.00152  -0.00128  -0.00078   0.00027   0.00011
 138        2PX         0.00000   0.00000   0.00000   0.00000   0.00000
 139        2PY         0.00008  -0.00011  -0.00003   0.00003   0.00000
 140        2PZ         0.00024  -0.00022  -0.00007   0.00006   0.00002
 141        3S          0.00164  -0.00665  -0.00026   0.00426  -0.00201
 142        3PX         0.00000   0.00000   0.00000   0.00000   0.00000
 143        3PY        -0.00028  -0.00071  -0.00014   0.00190  -0.00046
 144        3PZ        -0.00081   0.00342   0.00030  -0.00216   0.00101
 145        4XX        -0.00047   0.00047   0.00018  -0.00017   0.00001
 146        4YY        -0.00050   0.00059   0.00024  -0.00021  -0.00002
 147        4ZZ        -0.00061   0.00061   0.00031  -0.00023  -0.00002
 148        4XY         0.00000   0.00000   0.00000   0.00000   0.00000
 149        4XZ         0.00000   0.00000   0.00000   0.00000   0.00000
 150        4YZ        -0.00011   0.00007   0.00005  -0.00004  -0.00001
 151 11  C  1S          0.03113  -0.03238  -0.01274   0.00908  -0.05279
 152        2S          0.00119  -0.00133  -0.00054   0.00032  -0.00260
 153        2PX         0.00000   0.00000   0.00000   0.00000   0.00000
 154        2PY        -0.00022   0.00028   0.00009  -0.00008  -0.00004
 155        2PZ         0.00004  -0.00003  -0.00001   0.00001  -0.00009
 156        3S          0.00421  -0.00204  -0.00259   0.00177   0.00272
 157        3PX         0.00000   0.00000   0.00000   0.00000   0.00000
 158        3PY         0.00171  -0.00096  -0.00074   0.00041   0.00119
 159        3PZ        -0.00119   0.00042   0.00134  -0.00179  -0.00075
 160        4XX        -0.00043   0.00042   0.00017  -0.00015   0.00053
 161        4YY        -0.00060   0.00065   0.00030  -0.00025   0.00055
 162        4ZZ        -0.00044   0.00049   0.00020  -0.00017   0.00051
 163        4XY         0.00000   0.00000   0.00000   0.00000   0.00000
 164        4XZ         0.00000   0.00000   0.00000   0.00000   0.00000
 165        4YZ        -0.00002   0.00001  -0.00002  -0.00001   0.00000
 166 12  H  1S         -0.00001   0.00002  -0.00004   0.00007   0.00005
 167        2S          0.00037  -0.00010  -0.00031   0.00047   0.00015
 168 13  C  1S          0.00215  -0.00222  -0.00139   0.00120  -0.22082
 169        2S          0.00010  -0.00008  -0.00019   0.00017  -0.01067
 170        2PX         0.00000   0.00000   0.00000   0.00000   0.00000
 171        2PY        -0.00002   0.00001  -0.00001   0.00000   0.00010
 172        2PZ        -0.00002   0.00001   0.00001   0.00001  -0.00015
 173        3S         -0.00176   0.00073   0.00221  -0.00278  -0.00226
 174        3PX         0.00000   0.00000   0.00000   0.00000   0.00000
 175        3PY        -0.00099   0.00043   0.00126  -0.00141  -0.00214
 176        3PZ         0.00000  -0.00004   0.00007  -0.00007   0.00097
 177        4XX        -0.00002   0.00002  -0.00003   0.00003   0.00229
 178        4YY         0.00003  -0.00002  -0.00001   0.00001   0.00224
 179        4ZZ         0.00001  -0.00003   0.00001   0.00001   0.00236
 180        4XY         0.00000   0.00000   0.00000   0.00000   0.00000
 181        4XZ         0.00000   0.00000   0.00000   0.00000   0.00000
 182        4YZ         0.00003  -0.00003  -0.00001   0.00001  -0.00006
 183 14  C  1S          0.00043  -0.00019   0.00360  -0.00481  -0.65434
 184        2S         -0.00012   0.00006   0.00021  -0.00032  -0.03288
 185        2PX         0.00000   0.00000   0.00000   0.00000   0.00000
 186        2PY        -0.00001   0.00003  -0.00001   0.00001  -0.00004
 187        2PZ        -0.00001   0.00001   0.00001  -0.00001  -0.00007
 188        3S          0.00184  -0.00056  -0.00213   0.00258   0.01149
 189        3PX         0.00000   0.00000   0.00000   0.00000   0.00000
 190        3PY         0.00064  -0.00017  -0.00059   0.00078   0.00172
 191        3PZ         0.00080  -0.00025  -0.00102   0.00156   0.00224
 192        4XX        -0.00005   0.00003  -0.00001   0.00001   0.00638
 193        4YY         0.00001   0.00000   0.00002  -0.00003   0.00620
 194        4ZZ         0.00000   0.00000  -0.00001   0.00003   0.00626
 195        4XY         0.00000   0.00000   0.00000   0.00000   0.00000
 196        4XZ         0.00000   0.00000   0.00000   0.00000   0.00000
 197        4YZ         0.00001   0.00000   0.00003   0.00000   0.00000
 198 15  C  1S          0.00972  -0.00624   0.03315  -0.03812  -0.11301
 199        2S          0.00038  -0.00025   0.00131  -0.00159  -0.00521
 200        2PX         0.00000   0.00000   0.00000   0.00000   0.00000
 201        2PY        -0.00004  -0.00002  -0.00010   0.00009  -0.00030
 202        2PZ        -0.00008   0.00003  -0.00020   0.00029   0.00001
 203        3S         -0.00082  -0.00114   0.00409  -0.00392  -0.00499
 204        3PX         0.00000   0.00000   0.00000   0.00000   0.00000
 205        3PY         0.00109  -0.00047  -0.00037   0.00039   0.00224
 206        3PZ        -0.00056  -0.00044   0.00202  -0.00242  -0.00192
 207        4XX        -0.00012   0.00007  -0.00044   0.00050   0.00123
 208        4YY        -0.00010   0.00007  -0.00049   0.00065   0.00123
 209        4ZZ        -0.00012   0.00004  -0.00056   0.00073   0.00123
 210        4XY         0.00000   0.00000   0.00000   0.00000   0.00000
 211        4XZ         0.00000   0.00000   0.00000   0.00000   0.00000
 212        4YZ        -0.00001   0.00001  -0.00007   0.00011   0.00002
 213 16  H  1S         -0.00004   0.00003   0.00000  -0.00008   0.00002
 214        2S          0.00011   0.00064  -0.00006  -0.00067   0.00027
 215 17  H  1S         -0.00003  -0.00002   0.00003   0.00002  -0.00007
 216        2S         -0.00015  -0.00005   0.00030   0.00030   0.00087
 217 18  H  1S         -0.00001  -0.00002  -0.00004  -0.00007  -0.00005
 218        2S          0.00037   0.00010  -0.00031  -0.00047  -0.00015
 219 19  H  1S         -0.00007  -0.00002  -0.00001   0.00001  -0.00001
 220        2S         -0.00030   0.00007   0.00035   0.00071   0.00086
 221 20  H  1S          0.00002   0.00001  -0.00004  -0.00006  -0.00033
 222        2S          0.00027   0.00010  -0.00020  -0.00042   0.00063
 223 21  H  1S         -0.00004  -0.00003   0.00000   0.00008  -0.00002
 224        2S          0.00011  -0.00064  -0.00006   0.00067  -0.00027
 225 22  H  1S         -0.00003   0.00002   0.00003  -0.00002   0.00007
 226        2S         -0.00015   0.00005   0.00030  -0.00030  -0.00087
 227 23  H  1S          0.00002  -0.00001  -0.00004   0.00006   0.00033
 228        2S          0.00027  -0.00010  -0.00020   0.00042  -0.00063
 229 24  H  1S         -0.00007   0.00002  -0.00001  -0.00001   0.00001
 230        2S         -0.00030  -0.00007   0.00035  -0.00071  -0.00086
                           6         7         8         9        10
                        (A1)--O   (A1)--O   (B2)--O   (A1)--O   (B2)--O
     Eigenvalues --   -10.18226 -10.18182 -10.18151 -10.18151 -10.18109
   1 1   C  1S          0.22099  -0.01006   0.59994   0.59991   0.01547
   2        2S          0.01071  -0.00057   0.03028   0.03022   0.00079
   3        2PX         0.00000   0.00000   0.00000   0.00000   0.00000
   4        2PY         0.00011  -0.00001  -0.00013  -0.00013   0.00001
   5        2PZ         0.00016   0.00001  -0.00014  -0.00015  -0.00001
   6        3S          0.00163   0.00153  -0.01213  -0.01127  -0.00131
   7        3PX         0.00000   0.00000   0.00000   0.00000   0.00000
   8        3PY        -0.00170  -0.00070   0.00343   0.00284   0.00033
   9        3PZ        -0.00100   0.00037   0.00085   0.00088  -0.00008
  10        4XX        -0.00229   0.00008  -0.00580  -0.00582  -0.00015
  11        4YY        -0.00225   0.00011  -0.00567  -0.00567  -0.00013
  12        4ZZ        -0.00236   0.00008  -0.00558  -0.00557  -0.00018
  13        4XY         0.00000   0.00000   0.00000   0.00000   0.00000
  14        4XZ         0.00000   0.00000   0.00000   0.00000   0.00000
  15        4YZ        -0.00006  -0.00001   0.00001   0.00000   0.00000
  16 2   C  1S          0.05275  -0.01413   0.28709   0.28676  -0.01205
  17        2S          0.00256  -0.00074   0.01402   0.01401  -0.00067
  18        2PX         0.00000   0.00000   0.00000   0.00000   0.00000
  19        2PY        -0.00004  -0.00002  -0.00016  -0.00014  -0.00009
  20        2PZ         0.00009  -0.00004   0.00015   0.00015  -0.00001
  21        3S         -0.00185  -0.00046   0.00297   0.00153   0.00275
  22        3PX         0.00000   0.00000   0.00000   0.00000   0.00000
  23        3PY         0.00093  -0.00030  -0.00082  -0.00044  -0.00062
  24        3PZ         0.00051   0.00118  -0.00209  -0.00180  -0.00090
  25        4XX        -0.00054   0.00014  -0.00293  -0.00293   0.00012
  26        4YY        -0.00055   0.00024  -0.00287  -0.00286   0.00020
  27        4ZZ        -0.00050   0.00017  -0.00288  -0.00289   0.00018
  28        4XY         0.00000   0.00000   0.00000   0.00000   0.00000
  29        4XZ         0.00000   0.00000   0.00000   0.00000   0.00000
  30        4YZ        -0.00001  -0.00003   0.00001   0.00002   0.00001
  31 3   C  1S         -0.00234  -0.03972  -0.01584  -0.01723  -0.03439
  32        2S         -0.00024  -0.00240  -0.00097  -0.00097  -0.00233
  33        2PX         0.00000   0.00000   0.00000   0.00000   0.00000
  34        2PY        -0.00005   0.00017  -0.00006  -0.00007   0.00019
  35        2PZ         0.00004  -0.00019   0.00001   0.00001  -0.00025
  36        3S          0.00119   0.00493   0.00185  -0.00012   0.01207
  37        3PX         0.00000   0.00000   0.00000   0.00000   0.00000
  38        3PY         0.00126  -0.00172  -0.00351  -0.00120  -0.00753
  39        3PZ        -0.00095  -0.00044  -0.00005   0.00018   0.00283
  40        4XX        -0.00002   0.00026   0.00011   0.00014   0.00014
  41        4YY         0.00003   0.00020   0.00007   0.00007   0.00008
  42        4ZZ         0.00001   0.00011   0.00010   0.00010  -0.00001
  43        4XY         0.00000   0.00000   0.00000   0.00000   0.00000
  44        4XZ         0.00000   0.00000   0.00000   0.00000   0.00000
  45        4YZ         0.00000   0.00004   0.00001  -0.00001   0.00007
  46 4   C  1S         -0.00858   0.00330   0.00621   0.00539   0.00204
  47        2S         -0.00052   0.00021   0.00039   0.00022   0.00033
  48        2PX         0.00000   0.00000   0.00000   0.00000   0.00000
  49        2PY        -0.00004   0.00005  -0.00003  -0.00004  -0.00002
  50        2PZ         0.00002  -0.00002   0.00006   0.00000   0.00008
  51        3S         -0.00130  -0.00275  -0.00260   0.00129  -0.00631
  52        3PX         0.00000   0.00000   0.00000   0.00000   0.00000
  53        3PY        -0.00084  -0.00107   0.00375   0.00097   0.00380
  54        3PZ         0.00036  -0.00068  -0.00411  -0.00085  -0.00550
  55        4XX         0.00006  -0.00002  -0.00005  -0.00007   0.00005
  56        4YY         0.00010   0.00000  -0.00008  -0.00004   0.00003
  57        4ZZ         0.00008   0.00001  -0.00003  -0.00001   0.00005
  58        4XY         0.00000   0.00000   0.00000   0.00000   0.00000
  59        4XZ         0.00000   0.00000   0.00000   0.00000   0.00000
  60        4YZ         0.00001   0.00001   0.00001  -0.00002   0.00002
  61 5   C  1S          0.11300   0.00171  -0.05884  -0.05881  -0.00096
  62        2S          0.00521   0.00001  -0.00272  -0.00278  -0.00003
  63        2PX         0.00000   0.00000   0.00000   0.00000   0.00000
  64        2PY        -0.00023  -0.00002   0.00011   0.00005   0.00003
  65        2PZ         0.00000   0.00001  -0.00004  -0.00002  -0.00006
  66        3S          0.00358   0.00126  -0.00558  -0.00300  -0.00296
  67        3PX         0.00000   0.00000   0.00000   0.00000   0.00000
  68        3PY         0.00147   0.00064  -0.00125  -0.00066   0.00047
  69        3PZ         0.00120   0.00072  -0.00269  -0.00143  -0.00131
  70        4XX        -0.00125  -0.00004   0.00063   0.00063   0.00000
  71        4YY        -0.00128  -0.00004   0.00065   0.00069  -0.00003
  72        4ZZ        -0.00122   0.00000   0.00061   0.00062  -0.00002
  73        4XY         0.00000   0.00000   0.00000   0.00000   0.00000
  74        4XZ         0.00000   0.00000   0.00000   0.00000   0.00000
  75        4YZ         0.00003   0.00001   0.00001   0.00001   0.00002
  76 6   C  1S          0.65430   0.00521  -0.21569  -0.21580  -0.00344
  77        2S          0.03280   0.00029  -0.01126  -0.01121  -0.00022
  78        2PX         0.00000   0.00000   0.00000   0.00000   0.00000
  79        2PY        -0.00006   0.00001  -0.00010  -0.00006  -0.00001
  80        2PZ         0.00006   0.00000  -0.00025  -0.00025  -0.00003
  81        3S         -0.01024  -0.00114   0.00944   0.00808   0.00063
  82        3PX         0.00000   0.00000   0.00000   0.00000   0.00000
  83        3PY         0.00113   0.00049  -0.00099  -0.00046  -0.00011
  84        3PZ        -0.00175  -0.00041   0.00363   0.00308   0.00060
  85        4XX        -0.00641  -0.00005   0.00197   0.00198   0.00001
  86        4YY        -0.00617  -0.00005   0.00184   0.00182   0.00004
  87        4ZZ        -0.00626  -0.00004   0.00185   0.00186   0.00003
  88        4XY         0.00000   0.00000   0.00000   0.00000   0.00000
  89        4XZ         0.00000   0.00000   0.00000   0.00000   0.00000
  90        4YZ         0.00000   0.00000  -0.00009  -0.00010   0.00001
  91 7   C  1S         -0.00099   0.70045  -0.01021   0.01514   0.70110
  92        2S         -0.00009   0.03493  -0.00044   0.00071   0.03618
  93        2PX         0.00000   0.00000   0.00000   0.00000   0.00000
  94        2PY         0.00002   0.00023  -0.00002  -0.00003  -0.00029
  95        2PZ        -0.00002  -0.00016   0.00002  -0.00001  -0.00021
  96        3S          0.00071  -0.00709  -0.00328  -0.00015  -0.02487
  97        3PX         0.00000   0.00000   0.00000   0.00000   0.00000
  98        3PY         0.00007  -0.00044   0.00188   0.00037   0.00491
  99        3PZ        -0.00034   0.00110   0.00133   0.00028   0.00748
 100        4XX         0.00000  -0.00693   0.00012  -0.00016  -0.00660
 101        4YY         0.00001  -0.00675   0.00011  -0.00011  -0.00627
 102        4ZZ         0.00003  -0.00677   0.00011  -0.00014  -0.00644
 103        4XY         0.00000   0.00000   0.00000   0.00000   0.00000
 104        4XZ         0.00000   0.00000   0.00000   0.00000   0.00000
 105        4YZ         0.00000  -0.00002  -0.00004  -0.00003  -0.00007
 106 8   C  1S         -0.00858   0.00330  -0.00621   0.00539  -0.00204
 107        2S         -0.00052   0.00021  -0.00039   0.00022  -0.00033
 108        2PX         0.00000   0.00000   0.00000   0.00000   0.00000
 109        2PY         0.00004  -0.00005  -0.00003   0.00004  -0.00002
 110        2PZ         0.00002  -0.00002  -0.00006   0.00000  -0.00008
 111        3S         -0.00130  -0.00275   0.00260   0.00129   0.00631
 112        3PX         0.00000   0.00000   0.00000   0.00000   0.00000
 113        3PY         0.00084   0.00107   0.00375  -0.00097   0.00380
 114        3PZ         0.00036  -0.00068   0.00411  -0.00085   0.00550
 115        4XX         0.00006  -0.00002   0.00005  -0.00007  -0.00005
 116        4YY         0.00010   0.00000   0.00008  -0.00004  -0.00003
 117        4ZZ         0.00008   0.00001   0.00003  -0.00001  -0.00005
 118        4XY         0.00000   0.00000   0.00000   0.00000   0.00000
 119        4XZ         0.00000   0.00000   0.00000   0.00000   0.00000
 120        4YZ        -0.00001  -0.00001   0.00001   0.00002   0.00002
 121 9   C  1S         -0.00234  -0.03972   0.01584  -0.01723   0.03439
 122        2S         -0.00024  -0.00240   0.00097  -0.00097   0.00233
 123        2PX         0.00000   0.00000   0.00000   0.00000   0.00000
 124        2PY         0.00005  -0.00017  -0.00006   0.00007   0.00019
 125        2PZ         0.00004  -0.00019  -0.00001   0.00001   0.00025
 126        3S          0.00119   0.00493  -0.00185  -0.00012  -0.01207
 127        3PX         0.00000   0.00000   0.00000   0.00000   0.00000
 128        3PY        -0.00126   0.00172  -0.00351   0.00120  -0.00753
 129        3PZ        -0.00095  -0.00044   0.00005   0.00018  -0.00283
 130        4XX        -0.00002   0.00026  -0.00011   0.00014  -0.00014
 131        4YY         0.00003   0.00020  -0.00007   0.00007  -0.00008
 132        4ZZ         0.00001   0.00011  -0.00010   0.00010   0.00001
 133        4XY         0.00000   0.00000   0.00000   0.00000   0.00000
 134        4XZ         0.00000   0.00000   0.00000   0.00000   0.00000
 135        4YZ         0.00000  -0.00004   0.00001   0.00001   0.00007
 136 10  C  1S         -0.00099   0.70045   0.01021   0.01514  -0.70110
 137        2S         -0.00009   0.03493   0.00044   0.00071  -0.03618
 138        2PX         0.00000   0.00000   0.00000   0.00000   0.00000
 139        2PY        -0.00002  -0.00023  -0.00002   0.00003  -0.00029
 140        2PZ        -0.00002  -0.00016  -0.00002  -0.00001   0.00021
 141        3S          0.00071  -0.00709   0.00328  -0.00015   0.02487
 142        3PX         0.00000   0.00000   0.00000   0.00000   0.00000
 143        3PY        -0.00007   0.00044   0.00188  -0.00037   0.00491
 144        3PZ        -0.00034   0.00110  -0.00133   0.00028  -0.00748
 145        4XX         0.00000  -0.00693  -0.00012  -0.00016   0.00660
 146        4YY         0.00001  -0.00675  -0.00011  -0.00011   0.00627
 147        4ZZ         0.00003  -0.00677  -0.00011  -0.00014   0.00644
 148        4XY         0.00000   0.00000   0.00000   0.00000   0.00000
 149        4XZ         0.00000   0.00000   0.00000   0.00000   0.00000
 150        4YZ         0.00000   0.00002  -0.00004   0.00003  -0.00007
 151 11  C  1S          0.05275  -0.01413  -0.28709   0.28676   0.01205
 152        2S          0.00256  -0.00074  -0.01402   0.01401   0.00067
 153        2PX         0.00000   0.00000   0.00000   0.00000   0.00000
 154        2PY         0.00004   0.00002  -0.00016   0.00014  -0.00009
 155        2PZ         0.00009  -0.00004  -0.00015   0.00015   0.00001
 156        3S         -0.00185  -0.00046  -0.00297   0.00153  -0.00275
 157        3PX         0.00000   0.00000   0.00000   0.00000   0.00000
 158        3PY        -0.00093   0.00030  -0.00082   0.00044  -0.00062
 159        3PZ         0.00051   0.00118   0.00209  -0.00180   0.00090
 160        4XX        -0.00054   0.00014   0.00293  -0.00293  -0.00012
 161        4YY        -0.00055   0.00024   0.00287  -0.00286  -0.00020
 162        4ZZ        -0.00050   0.00017   0.00288  -0.00289  -0.00018
 163        4XY         0.00000   0.00000   0.00000   0.00000   0.00000
 164        4XZ         0.00000   0.00000   0.00000   0.00000   0.00000
 165        4YZ         0.00001   0.00003   0.00001  -0.00002   0.00001
 166 12  H  1S         -0.00005  -0.00007   0.00010  -0.00011  -0.00003
 167        2S         -0.00008  -0.00033  -0.00089   0.00085  -0.00015
 168 13  C  1S          0.22099  -0.01006  -0.59994   0.59991  -0.01547
 169        2S          0.01071  -0.00057  -0.03028   0.03022  -0.00079
 170        2PX         0.00000   0.00000   0.00000   0.00000   0.00000
 171        2PY        -0.00011   0.00001  -0.00013   0.00013   0.00001
 172        2PZ         0.00016   0.00001   0.00014  -0.00015   0.00001
 173        3S          0.00163   0.00153   0.01213  -0.01127   0.00131
 174        3PX         0.00000   0.00000   0.00000   0.00000   0.00000
 175        3PY         0.00170   0.00070   0.00343  -0.00284   0.00033
 176        3PZ        -0.00100   0.00037  -0.00085   0.00088   0.00008
 177        4XX        -0.00229   0.00008   0.00580  -0.00582   0.00015
 178        4YY        -0.00225   0.00011   0.00567  -0.00567   0.00013
 179        4ZZ        -0.00236   0.00008   0.00558  -0.00557   0.00018
 180        4XY         0.00000   0.00000   0.00000   0.00000   0.00000
 181        4XZ         0.00000   0.00000   0.00000   0.00000   0.00000
 182        4YZ         0.00006   0.00001   0.00001   0.00000   0.00000
 183 14  C  1S          0.65430   0.00521   0.21569  -0.21580   0.00344
 184        2S          0.03280   0.00029   0.01126  -0.01121   0.00022
 185        2PX         0.00000   0.00000   0.00000   0.00000   0.00000
 186        2PY         0.00006  -0.00001  -0.00010   0.00006  -0.00001
 187        2PZ         0.00006   0.00000   0.00025  -0.00025   0.00003
 188        3S         -0.01024  -0.00114  -0.00944   0.00808  -0.00063
 189        3PX         0.00000   0.00000   0.00000   0.00000   0.00000
 190        3PY        -0.00113  -0.00049  -0.00099   0.00046  -0.00011
 191        3PZ        -0.00175  -0.00041  -0.00363   0.00308  -0.00060
 192        4XX        -0.00641  -0.00005  -0.00197   0.00198  -0.00001
 193        4YY        -0.00617  -0.00005  -0.00184   0.00182  -0.00004
 194        4ZZ        -0.00626  -0.00004  -0.00185   0.00186  -0.00003
 195        4XY         0.00000   0.00000   0.00000   0.00000   0.00000
 196        4XZ         0.00000   0.00000   0.00000   0.00000   0.00000
 197        4YZ         0.00000   0.00000  -0.00009   0.00010   0.00001
 198 15  C  1S          0.11300   0.00171   0.05884  -0.05881   0.00096
 199        2S          0.00521   0.00001   0.00272  -0.00278   0.00003
 200        2PX         0.00000   0.00000   0.00000   0.00000   0.00000
 201        2PY         0.00023   0.00002   0.00011  -0.00005   0.00003
 202        2PZ         0.00000   0.00001   0.00004  -0.00002   0.00006
 203        3S          0.00358   0.00126   0.00558  -0.00300   0.00296
 204        3PX         0.00000   0.00000   0.00000   0.00000   0.00000
 205        3PY        -0.00147  -0.00064  -0.00125   0.00066   0.00047
 206        3PZ         0.00120   0.00072   0.00269  -0.00143   0.00131
 207        4XX        -0.00125  -0.00004  -0.00063   0.00063   0.00000
 208        4YY        -0.00128  -0.00004  -0.00065   0.00069   0.00003
 209        4ZZ        -0.00122   0.00000  -0.00061   0.00062   0.00002
 210        4XY         0.00000   0.00000   0.00000   0.00000   0.00000
 211        4XZ         0.00000   0.00000   0.00000   0.00000   0.00000
 212        4YZ        -0.00003  -0.00001   0.00001  -0.00001   0.00002
 213 16  H  1S         -0.00001  -0.00032  -0.00007  -0.00006  -0.00044
 214        2S          0.00008   0.00109  -0.00056  -0.00014  -0.00049
 215 17  H  1S         -0.00008   0.00000  -0.00031  -0.00029   0.00000
 216        2S          0.00077   0.00016   0.00040   0.00055   0.00004
 217 18  H  1S         -0.00005  -0.00007  -0.00010  -0.00011   0.00003
 218        2S         -0.00008  -0.00033   0.00089   0.00085   0.00015
 219 19  H  1S         -0.00004   0.00003  -0.00003   0.00000   0.00002
 220        2S          0.00046   0.00026  -0.00077  -0.00033  -0.00024
 221 20  H  1S         -0.00032  -0.00002   0.00013   0.00012   0.00003
 222        2S          0.00084  -0.00011   0.00035   0.00019   0.00015
 223 21  H  1S         -0.00001  -0.00032   0.00007  -0.00006   0.00044
 224        2S          0.00008   0.00109   0.00056  -0.00014   0.00049
 225 22  H  1S         -0.00008   0.00000   0.00031  -0.00029   0.00000
 226        2S          0.00077   0.00016  -0.00040   0.00055  -0.00004
 227 23  H  1S         -0.00032  -0.00002  -0.00013   0.00012  -0.00003
 228        2S          0.00084  -0.00011  -0.00035   0.00019  -0.00015
 229 24  H  1S         -0.00004   0.00003   0.00003   0.00000  -0.00002
 230        2S          0.00046   0.00026   0.00077  -0.00033   0.00024
                          11        12        13        14        15
                        (B2)--O   (A1)--O   (B2)--O   (A1)--O   (A1)--O
     Eigenvalues --   -10.18058 -10.18058 -10.18009 -10.18009  -0.89161
   1 1   C  1S         -0.28826  -0.28843   0.02814   0.02790  -0.03638
   2        2S         -0.01508  -0.01506   0.00160   0.00160   0.06859
   3        2PX         0.00000   0.00000   0.00000   0.00000   0.00000
   4        2PY         0.00023   0.00023  -0.00003  -0.00002  -0.02780
   5        2PZ        -0.00015  -0.00015  -0.00001   0.00000   0.00403
   6        3S          0.01296   0.01263  -0.00509  -0.00561   0.04298
   7        3PX         0.00000   0.00000   0.00000   0.00000   0.00000
   8        3PY        -0.00504  -0.00475   0.00255   0.00288  -0.00167
   9        3PZ         0.00103   0.00094  -0.00002   0.00010   0.00121
  10        4XX         0.00264   0.00265  -0.00020  -0.00020  -0.00424
  11        4YY         0.00255   0.00255  -0.00017  -0.00017   0.00144
  12        4ZZ         0.00239   0.00239  -0.00016  -0.00016   0.00128
  13        4XY         0.00000   0.00000   0.00000   0.00000   0.00000
  14        4XZ         0.00000   0.00000   0.00000   0.00000   0.00000
  15        4YZ         0.00004   0.00004   0.00004   0.00004  -0.00031
  16 2   C  1S          0.63731   0.63741  -0.01271  -0.01234  -0.04738
  17        2S          0.03255   0.03252  -0.00082  -0.00085   0.08882
  18        2PX         0.00000   0.00000   0.00000   0.00000   0.00000
  19        2PY        -0.00003  -0.00004   0.00002   0.00001  -0.02810
  20        2PZ        -0.00023  -0.00023   0.00002   0.00002  -0.01954
  21        3S         -0.01754  -0.01687   0.00360   0.00465   0.05741
  22        3PX         0.00000   0.00000   0.00000   0.00000   0.00000
  23        3PY         0.00263   0.00241  -0.00074  -0.00125  -0.00790
  24        3PZ         0.00490   0.00464  -0.00221  -0.00235   0.00082
  25        4XX        -0.00611  -0.00612   0.00006   0.00004  -0.00559
  26        4YY        -0.00587  -0.00587   0.00009   0.00010   0.00332
  27        4ZZ        -0.00587  -0.00588   0.00009   0.00009   0.00061
  28        4XY         0.00000   0.00000   0.00000   0.00000   0.00000
  29        4XZ         0.00000   0.00000   0.00000   0.00000   0.00000
  30        4YZ        -0.00010  -0.00010   0.00001   0.00000   0.00018
  31 3   C  1S         -0.03052  -0.03014   0.00220   0.00198  -0.08373
  32        2S         -0.00203  -0.00199   0.00030   0.00022   0.15920
  33        2PX         0.00000   0.00000   0.00000   0.00000   0.00000
  34        2PY        -0.00028  -0.00025  -0.00001   0.00001  -0.02042
  35        2PZ         0.00004   0.00003  -0.00003  -0.00001  -0.02011
  36        3S          0.00916   0.00808  -0.00482  -0.00420   0.08532
  37        3PX         0.00000   0.00000   0.00000   0.00000   0.00000
  38        3PY         0.00383   0.00359  -0.00020  -0.00164  -0.00695
  39        3PZ        -0.00350  -0.00303   0.00284   0.00262  -0.01234
  40        4XX         0.00014   0.00014   0.00004   0.00002  -0.00948
  41        4YY        -0.00002  -0.00003   0.00003   0.00004   0.00214
  42        4ZZ         0.00008   0.00010   0.00007   0.00003   0.00287
  43        4XY         0.00000   0.00000   0.00000   0.00000   0.00000
  44        4XZ         0.00000   0.00000   0.00000   0.00000   0.00000
  45        4YZ        -0.00001  -0.00001   0.00000   0.00001   0.00067
  46 4   C  1S         -0.00016  -0.00013  -0.03739  -0.03357  -0.09678
  47        2S          0.00013   0.00010  -0.00233  -0.00221   0.18412
  48        2PX         0.00000   0.00000   0.00000   0.00000   0.00000
  49        2PY         0.00000   0.00005  -0.00012  -0.00023  -0.00977
  50        2PZ         0.00003   0.00001   0.00018   0.00023   0.01797
  51        3S         -0.00256  -0.00499   0.00766   0.00918   0.09333
  52        3PX         0.00000   0.00000   0.00000   0.00000   0.00000
  53        3PY        -0.00422  -0.00274   0.00416   0.00411  -0.00496
  54        3PZ        -0.00079   0.00013  -0.00011  -0.00134   0.00579
  55        4XX         0.00006   0.00003   0.00021   0.00018  -0.01084
  56        4YY         0.00007   0.00003   0.00001   0.00020   0.00403
  57        4ZZ         0.00006   0.00003  -0.00001   0.00006   0.00173
  58        4XY         0.00000   0.00000   0.00000   0.00000   0.00000
  59        4XZ         0.00000   0.00000   0.00000   0.00000   0.00000
  60        4YZ         0.00003   0.00002   0.00006   0.00006   0.00027
  61 5   C  1S          0.03102   0.03059   0.68855   0.68879  -0.05493
  62        2S          0.00134   0.00132   0.03502   0.03503   0.10287
  63        2PX         0.00000   0.00000   0.00000   0.00000   0.00000
  64        2PY        -0.00002   0.00000   0.00007   0.00013  -0.00329
  65        2PZ        -0.00002   0.00000   0.00015   0.00016   0.03745
  66        3S          0.00426   0.00429  -0.01575  -0.01658   0.06643
  67        3PX         0.00000   0.00000   0.00000   0.00000   0.00000
  68        3PY         0.00210   0.00128  -0.00232  -0.00263  -0.00591
  69        3PZ         0.00235   0.00230  -0.00326  -0.00434   0.00866
  70        4XX        -0.00038  -0.00038  -0.00663  -0.00667  -0.00647
  71        4YY        -0.00032  -0.00034  -0.00630  -0.00636   0.00147
  72        4ZZ        -0.00033  -0.00031  -0.00644  -0.00648   0.00310
  73        4XY         0.00000   0.00000   0.00000   0.00000   0.00000
  74        4XZ         0.00000   0.00000   0.00000   0.00000   0.00000
  75        4YZ         0.00000  -0.00001  -0.00007  -0.00004  -0.00166
  76 6   C  1S          0.04046   0.04069  -0.12832  -0.12818  -0.03808
  77        2S          0.00232   0.00230  -0.00698  -0.00703   0.07163
  78        2PX         0.00000   0.00000   0.00000   0.00000   0.00000
  79        2PY         0.00003   0.00003   0.00026   0.00024  -0.02040
  80        2PZ         0.00007   0.00007  -0.00007  -0.00008   0.02123
  81        3S         -0.00721  -0.00650   0.00949   0.01026   0.04541
  82        3PX         0.00000   0.00000   0.00000   0.00000   0.00000
  83        3PY         0.00158   0.00121  -0.00293  -0.00321  -0.00351
  84        3PZ        -0.00309  -0.00302   0.00256   0.00316   0.00071
  85        4XX        -0.00029  -0.00031   0.00110   0.00108  -0.00449
  86        4YY        -0.00028  -0.00027   0.00089   0.00092   0.00190
  87        4ZZ        -0.00021  -0.00022   0.00102   0.00102   0.00095
  88        4XY         0.00000   0.00000   0.00000   0.00000   0.00000
  89        4XZ         0.00000   0.00000   0.00000   0.00000   0.00000
  90        4YZ         0.00005   0.00005  -0.00004  -0.00005  -0.00033
  91 7   C  1S          0.01610   0.00666  -0.00033  -0.00034  -0.05761
  92        2S          0.00081   0.00027  -0.00006  -0.00006   0.10847
  93        2PX         0.00000   0.00000   0.00000   0.00000   0.00000
  94        2PY        -0.00001   0.00003  -0.00001  -0.00002  -0.01243
  95        2PZ        -0.00007  -0.00007   0.00001   0.00003  -0.03869
  96        3S          0.00078   0.00101   0.00003  -0.00089   0.07170
  97        3PX         0.00000   0.00000   0.00000   0.00000   0.00000
  98        3PY         0.00025   0.00000  -0.00063  -0.00019   0.00359
  99        3PZ        -0.00020  -0.00044  -0.00017   0.00019  -0.00473
 100        4XX        -0.00014  -0.00007  -0.00001  -0.00002  -0.00668
 101        4YY        -0.00006  -0.00002  -0.00004  -0.00001   0.00194
 102        4ZZ        -0.00007   0.00001   0.00000   0.00000   0.00274
 103        4XY         0.00000   0.00000   0.00000   0.00000   0.00000
 104        4XZ         0.00000   0.00000   0.00000   0.00000   0.00000
 105        4YZ        -0.00004   0.00000   0.00001   0.00000  -0.00082
 106 8   C  1S          0.00016  -0.00013   0.03739  -0.03357  -0.09678
 107        2S         -0.00013   0.00010   0.00233  -0.00221   0.18412
 108        2PX         0.00000   0.00000   0.00000   0.00000   0.00000
[...]
 905377,-0.00387613,0.,-0.01370230,0.04439621,0.,-0.34664711,0.00450095
 ,0.,-0.04859274,-0.02822440,0.,0.02178643,-0.01115462,0.,-0.03134913,-
 0.01788458,0.,0.78488570,0.,0.00039338,-0.00054543,0.,0.00108955,-0.00
 613371,0.,0.03454206,0.00622518,0.,-0.00450095,-0.10968117,0.,-0.03521
 221,0.00818776,0.,-0.00182074,-0.00719989,0.,-0.00825421,-0.00286703,0
 .,-0.00025073,0.74333380,-0.00013208,0.,0.,-0.00026609,0.,0.,-0.006344
 90,0.,0.,0.00598268,0.,0.,0.00437016,0.,0.,0.00056499,0.,0.,0.00731997
 ,0.,0.,-0.07102337,0.,0.,0.15042221,0.,0.00054655,0.00581182,0.,-0.007
 33124,-0.00305238,0.,0.00880679,0.01291439,0.,-0.01370230,-0.03454206,
 0.,-0.00732325,0.00048124,0.,0.00370277,-0.00323525,0.,-0.04730249,0.0
 2514660,0.,-0.18601488,-0.07828416,0.,0.75655707,0.,0.00020297,-0.0140
 3771,0.,0.01296621,0.00469226,0.,-0.01291439,-0.03037472,0.,-0.0443962
 1,0.00622518,0.,0.01609557,0.00984783,0.,-0.01292867,0.00736471,0.,0.0
 5323388,0.02198834,0.,-0.09122198,-0.28370653,0.,-0.01335175,0.7482648
 2,0.00054737,0.,0.,0.00476790,0.,0.,0.00731997,0.,0.,-0.00503610,0.,0.
 ,-0.00008978,0.,0.,-0.00032758,0.,0.,-0.05603486,0.,0.,0.00707778,0.,0
 .,-0.06207890,0.,0.,0.11954972,0.,-0.00117719,-0.01663807,0.,0.0207853
 2,0.00585057,0.,-0.04730249,-0.05323388,0.,-0.03134913,0.00825421,0.,0
 .00856949,0.00659280,0.,-0.01135417,0.00768528,0.,-0.44386124,0.025072
 58,0.,0.04536919,0.00332733,0.,-0.15028156,0.07247029,0.,0.80798110,0.
 ,-0.00023682,0.00842565,0.,-0.00937434,-0.00970803,0.,-0.02514660,0.02
 198834,0.,0.01788458,-0.00286703,0.,-0.00657850,-0.00427343,0.,0.00624
 355,-0.00467295,0.,-0.02507258,-0.13131877,0.,-0.00869346,-0.04302945,
 0.,0.10314824,-0.29096040,0.,0.04030247,0.74822179,0.00031799,0.,0.,-0
 .00080894,0.,0.,-0.00026609,0.,0.,0.00526956,0.,0.,0.00073818,0.,0.,-0
 .00069811,0.,0.,0.00476790,0.,0.,0.00816345,0.,0.,-0.06578888,0.,0.,0.
 00576165,0.,0.,0.12051655,0.,-0.00055422,-0.00561072,0.,0.00594697,0.0
 0270726,0.,-0.00733124,-0.01296621,0.,-0.00905377,-0.00108955,0.,0.002
 77696,0.00338642,0.,-0.00417786,0.00225595,0.,0.02078532,0.00937434,0.
 ,-0.01462855,-0.05734420,0.,-0.33160303,0.00105702,0.,-0.04745892,0.02
 537738,0.,0.72633992,0.,0.00056471,0.00255723,0.,-0.00270726,-0.000557
 15,0.,0.00305238,0.00469226,0.,0.00387613,-0.00613371,0.,-0.00292807,-
 0.00110080,0.,0.00190565,-0.00162487,0.,-0.00585057,-0.00970803,0.,-0.
 03535958,0.02773798,0.,-0.03595655,-0.11584251,0.,0.04807398,-0.004350
 10,0.,-0.00688925,0.83527277,-0.00002395,0.,0.,0.00004199,0.,0.,-0.000
 16173,0.,0.,0.00062250,0.,0.,0.00004003,0.,0.,0.00001785,0.,0.,-0.0000
 7337,0.,0.,0.00488491,0.,0.,0.00304526,0.,0.,-0.00347275,0.,0.,-0.0314
 7146,0.,0.,0.02007974,0.,-0.00001861,0.00001053,0.,0.00003492,0.000123
 41,0.,0.00018722,-0.00017547,0.,-0.00011594,-0.00185498,0.,-0.00051807
 ,0.00025582,0.,-0.00000842,-0.00015004,0.,0.00010609,0.00041117,0.,-0.
 00534951,0.00227761,0.,-0.01158219,-0.02919906,0.,0.00153090,-0.002398
 21,0.,-0.13700652,-0.13785556,0.,0.14073614,0.,-0.00002640,0.00006038,
 0.,-0.00006330,-0.00004696,0.,0.00010445,0.00027836,0.,0.00042000,-0.0
 0004943,0.,-0.00008098,-0.00001676,0.,0.00005809,-0.00002554,0.,-0.000
 44308,0.00012424,0.,0.00055617,0.00127910,0.,0.00140774,0.00272016,0.,
 0.00172529,0.00073942,0.,-0.13693327,-0.29307762,0.,0.14644600,0.31105
 820,-0.00022844,0.,0.,0.00031799,0.,0.,-0.00013208,0.,0.,0.00000522,0.
 ,0.,-0.00063679,0.,0.,0.00018575,0.,0.,0.00054737,0.,0.,-0.00775874,0.
 ,0.,0.00811481,0.,0.,0.00599786,0.,0.,-0.05462316,0.,0.,0.00376554,0.,
 0.,0.11797193,0.,-0.00039568,0.00031893,0.,-0.00055422,-0.00056471,0.,
 0.00054655,-0.00020297,0.,-0.00175080,-0.00039338,0.,-0.00024552,0.000
 20309,0.,0.00006596,0.00067813,0.,-0.00117719,0.00023682,0.,0.00203193
 ,-0.00034429,0.,-0.02862825,0.03456170,0.,-0.00404118,-0.00382769,0.,-
 0.20727526,0.16793876,0.,0.01257946,-0.01706266,0.,0.79997353,0.,-0.00
 031893,-0.00598108,0.,0.00561072,0.00255723,0.,-0.00581182,-0.01403771
 ,0.,-0.01647529,-0.00054543,0.,0.00442811,0.00474810,0.,-0.00524890,0.
 00289344,0.,0.01663807,0.00842565,0.,0.01645950,-0.05383814,0.,0.07402
 251,0.01136183,0.,-0.01947502,0.01426271,0.,0.10544042,-0.36465597,0.,
 0.01671100,-0.02098938,0.,-0.05128928,0.73533347,0.00018575,0.,0.,-0.0
 0069811,0.,0.,0.00056499,0.,0.,0.00566762,0.,0.,-0.00059365,0.,0.,0.00
 069591,0.,0.,-0.00032758,0.,0.,0.00708916,0.,0.,-0.00773068,0.,0.,-0.0
 0033969,0.,0.,0.00863889,0.,0.,0.00819788,0.,0.,-0.05992333,0.,0.,0.11
 781038,0.,0.00006596,0.00524890,0.,-0.00417786,-0.00190565,0.,0.003702
 77,0.01292867,0.,0.02178643,0.00182074,0.,-0.00487179,-0.00556272,0.,0
 .00529966,-0.00298376,0.,-0.01135417,-0.00624355,0.,-0.04828643,0.0651
 4634,0.,-0.04495846,-0.01324384,0.,0.00900213,-0.00754264,0.,0.0612205
 1,-0.02384737,0.,-0.00121218,0.00445009,0.,-0.17585530,-0.04990362,0.,
 0.79807750,0.,-0.00067813,0.00289344,0.,-0.00225595,-0.00162487,0.,0.0
 0323525,0.00736471,0.,0.01115462,-0.00719989,0.,-0.00408422,-0.0041708
 7,0.,0.00298376,-0.00020828,0.,-0.00768528,-0.00467295,0.,0.02365449,0
 .02987115,0.,-0.02831170,-0.00612550,0.,0.00823462,-0.00601749,0.,0.02
 241751,-0.06040122,0.,0.00294544,-0.00272306,0.,-0.11621735,-0.2745929
 9,0.,-0.05267010,0.73741551,-0.00063679,0.,0.,0.00073818,0.,0.,0.00437
 016,0.,0.,0.00455754,0.,0.,0.00104617,0.,0.,-0.00059365,0.,0.,-0.00008
 978,0.,0.,-0.06522700,0.,0.,0.00768192,0.,0.,0.00537839,0.,0.,-0.00728
 428,0.,0.,0.00016188,0.,0.,0.00857347,0.,0.,-0.05271207,0.,0.,0.118283
 13,0.,-0.00024552,-0.00442811,0.,0.00277696,0.00292807,0.,-0.00732325,
 -0.01609557,0.,-0.04859274,0.03521221,0.,0.00103400,0.00613837,0.,-0.0
 0487179,0.00408422,0.,0.00856949,0.00657850,0.,-0.15477589,0.06469692,
 0.,0.05581931,0.00862668,0.,-0.00983721,0.00067517,0.,-0.04448278,0.02
 777440,0.,-0.00077974,0.00069037,0.,-0.02828915,-0.07607823,0.,-0.4460
 7285,0.02759753,0.,0.82368906,0.,-0.00020309,0.00474810,0.,-0.00338642
 ,-0.00110080,0.,-0.00048124,0.00984783,0.,0.02822440,0.00818776,0.,-0.
 00613837,-0.00479554,0.,0.00556272,-0.00417087,0.,-0.00659280,-0.00427
 343,0.,0.10038819,-0.28670508,0.,-0.01455109,-0.04575287,0.,0.00005234
 ,-0.00473360,0.,0.02337620,-0.01579740,0.,0.00077548,0.00026053,0.,-0.
 03059610,0.03011125,0.,-0.03627642,-0.12771918,0.,0.04731822,0.7415186
 8,-0.00004314,0.,0.,-0.00278996,0.,0.,0.00294286,0.,0.,0.00396254,0.,0
 .,0.00030553,0.,0.,-0.00011696,0.,0.,-0.03147663,0.,0.,0.00000359,0.,0
 .,0.00961426,0.,0.,0.00353050,0.,0.,0.00036490,0.,0.,0.00019914,0.,0.,
 -0.00094073,0.,0.,0.00034589,0.,0.,-0.00115061,0.,0.,0.01985502,0.,0.0
 0014346,0.00041699,0.,0.00124229,-0.00147095,0.,0.01114775,-0.01496506
 ,0.,-0.00181054,-0.00271250,0.,0.00050064,-0.00072943,0.,0.00022289,-0
 .00010017,0.,-0.13443479,0.13590391,0.,-0.00054393,-0.00039248,0.,-0.0
 0554746,-0.00251163,0.,-0.01239724,0.03161863,0.,0.00017940,0.00166264
 ,0.,-0.00004105,-0.00005625,0.,-0.00059190,0.00004680,0.,-0.00010753,-
 0.00020893,0.,0.00027403,0.00001747,0.,0.14106453,0.,-0.00034065,0.000
 06111,0.,0.00251079,0.00114151,0.,0.01591284,-0.02020584,0.,-0.0043626
 4,-0.00240341,0.,0.00140690,-0.00072264,0.,-0.00007987,0.00019448,0.,0
 .13640938,-0.29575994,0.,-0.00072193,0.00017907,0.,-0.00073914,0.00150
 046,0.,-0.00205134,0.00419555,0.,0.00002126,-0.00007195,0.,0.00001520,
 0.00001184,0.,0.00008353,0.00013133,0.,-0.00006606,-0.00002903,0.,0.00
 012829,0.00001711,0.,-0.14669420,0.31073237,-0.03185338,0.,0.,0.003296
 99,0.,0.,0.00905631,0.,0.,-0.00023977,0.,0.,0.00565337,0.,0.,0.0020615
 9,0.,0.,0.00044013,0.,0.,-0.00109886,0.,0.,0.00027102,0.,0.,-0.0007159
 1,0.,0.,-0.00000092,0.,0.,0.00000309,0.,0.,0.00001536,0.,0.,-0.0001592
 1,0.,0.,0.00013948,0.,0.,0.00010996,0.,0.,0.02063671,0.,-0.37370147,0.
 00035240,0.,-0.01301052,0.00253000,0.,0.00096141,-0.00323687,0.,0.0007
 0621,0.00000462,0.,0.00064481,0.00319500,0.,-0.01154036,-0.00274778,0.
 ,-0.00075097,0.00058732,0.,0.00004763,-0.00000573,0.,0.00003744,-0.000
 07230,0.,-0.00010904,-0.00037948,0.,0.00000458,0.00001964,0.,-0.000005
 94,-0.00001339,0.,-0.00000792,0.00000852,0.,-0.00000429,-0.00000657,0.
 ,-0.00006624,0.00006516,0.,0.00001830,-0.00005205,0.,0.39558474,0.,0.0
 0152250,-0.05755912,0.,-0.03139038,0.00474197,0.,-0.00165559,-0.005099
 61,0.,-0.00045840,-0.00131910,0.,0.00188960,-0.00512632,0.,0.03021941,
 0.00496974,0.,-0.00112603,0.00089306,0.,0.00021661,0.00023118,0.,0.000
 20302,-0.00024680,0.,-0.00034889,-0.00036659,0.,-0.00005516,0.00007372
 ,0.,0.00000589,0.00000397,0.,0.00001282,-0.00008602,0.,0.00004623,0.00
 012635,0.,-0.00005382,-0.00006715,0.,0.00002335,-0.00003114,0.,-0.0000
 7067,0.05642488,0.00376554,0.,0.,-0.03147146,0.,0.,0.00304526,0.,0.,0.
 00488491,0.,0.,0.00016188,0.,0.,0.00819788,0.,0.,-0.00347275,0.,0.,0.0
 0062250,0.,0.,-0.00016173,0.,0.,-0.00007337,0.,0.,0.00004199,0.,0.,0.0
 0000671,0.,0.,-0.00002395,0.,0.,0.00001785,0.,0.,0.00004003,0.,0.,0.00
 025039,0.,0.,-0.00492982,0.,0.,0.02007974,0.,0.01257946,-0.01671100,0.
 ,-0.13700652,0.13785556,0.,-0.01158219,0.02919906,0.,-0.00534951,-0.00
 227761,0.,-0.00077974,-0.00077548,0.,-0.00121218,-0.00294544,0.,0.0015
 3090,0.00239821,0.,-0.00011594,0.00185498,0.,0.00018722,0.00017547,0.,
 0.00010609,-0.00041117,0.,0.00003492,-0.00012341,0.,-0.00004404,-0.000
 00658,0.,-0.00001861,-0.00001053,0.,-0.00000842,0.00015004,0.,-0.00051
 807,-0.00025582,0.,-0.00015899,-0.00130511,0.,0.00108020,0.00033830,0.
 ,0.14073614,0.,0.01706266,-0.02098938,0.,0.13693327,-0.29307762,0.,-0.
 00140774,0.00272016,0.,-0.00055617,0.00127910,0.,-0.00069037,0.0002605
 3,0.,-0.00445009,-0.00272306,0.,-0.00172529,0.00073942,0.,-0.00042000,
 -0.00004943,0.,-0.00010445,0.00027836,0.,0.00044308,0.00012424,0.,0.00
 006330,-0.00004696,0.,0.00000658,0.00001750,0.,0.00002640,0.00006038,0
 .,-0.00005809,-0.00002554,0.,0.00008098,-0.00001676,0.,0.00036093,0.00
 039716,0.,-0.00021174,0.00114309,0.,-0.14644600,0.31105820,0.00842620,
 0.,0.,0.00015106,0.,0.,0.00532441,0.,0.,0.00231124,0.,0.,-0.03194848,0
 .,0.,0.00344020,0.,0.,0.00042126,0.,0.,-0.00240576,0.,0.,-0.00005072,0
 .,0.,-0.00030583,0.,0.,-0.00003033,0.,0.,0.00004826,0.,0.,0.00001462,0
 .,0.,-0.00024847,0.,0.,-0.00072034,0.,0.,0.00006759,0.,0.,0.00027060,0
 .,0.,-0.00152595,0.,0.,0.01839185,0.,-0.00541116,-0.00176788,0.,-0.000
 57496,-0.00081551,0.,-0.00193956,-0.00279663,0.,0.01367377,-0.01294382
 ,0.,-0.12938346,0.13373839,0.,-0.01211570,0.03083552,0.,0.00065143,-0.
 00066533,0.,-0.00040312,0.00163079,0.,-0.00005491,0.00000389,0.,0.0001
 8936,0.00004780,0.,0.00010811,0.00016310,0.,0.00004372,0.00001322,0.,-
 0.00006939,0.00010972,0.,-0.00006099,-0.00006495,0.,-0.00544953,-0.002
 41905,0.,-0.00013196,-0.00023807,0.,-0.00066135,0.00149152,0.,0.000134
 90,0.00015156,0.,0.14844416,0.,-0.00040433,0.00158431,0.,-0.00075425,0
 .00008587,0.,-0.00451022,-0.00217836,0.,0.01521852,-0.02073565,0.,0.13
 215861,-0.29733023,0.,-0.00202114,0.00381156,0.,0.00129605,-0.00074824
 ,0.,0.00230507,-0.00035808,0.,-0.00020407,-0.00019348,0.,0.00003826,-0
 .00004660,0.,0.00013791,0.00013481,0.,-0.00001544,0.00001146,0.,0.0001
 7653,0.00004243,0.,0.00002263,0.00118775,0.,0.00181684,-0.00069877,0.,
 -0.00022703,-0.00040089,0.,-0.00016172,0.00005277,0.,0.00015414,-0.000
 02812,0.,-0.14573784,0.31155497,0.00215489,0.,0.,0.00572592,0.,0.,-0.0
 0034699,0.,0.,0.00914327,0.,0.,0.00307961,0.,0.,-0.03178511,0.,0.,-0.0
 0114281,0.,0.,0.00033760,0.,0.,-0.00078651,0.,0.,0.00030169,0.,0.,0.00
 000709,0.,0.,-0.00004763,0.,0.,0.00007272,0.,0.,-0.00008126,0.,0.,0.00
 035412,0.,0.,0.00004659,0.,0.,-0.00308526,0.,0.,0.00034146,0.,0.,-0.00
 485774,0.,0.,0.02056724,0.,0.01267575,0.01579562,0.,-0.00139889,0.0031
 2499,0.,-0.00094903,0.00057776,0.,-0.00574470,0.00229152,0.,-0.0126341
 8,-0.03137827,0.,-0.13882127,-0.13770082,0.,0.00032645,0.00002390,0.,0
 .00026850,-0.00190944,0.,-0.00054771,0.00002535,0.,-0.00015633,0.00021
 345,0.,-0.00008243,-0.00014525,0.,-0.00006556,-0.00001268,0.,-0.000003
 65,-0.00006660,0.,0.00006978,0.00009667,0.,0.00001410,-0.00005408,0.,-
 0.00000619,-0.00008250,0.,0.00089144,-0.00064490,0.,0.00047322,0.00087
 209,0.,0.00120919,0.00022665,0.,0.14457825,0.,-0.01708711,-0.01932934,
 0.,0.00441537,-0.00308083,0.,0.00097162,0.00037441,0.,0.00071855,0.001
 49275,0.,0.00218605,0.00434212,0.,-0.13879803,-0.29226832,0.,-0.000146
 28,0.00005530,0.,-0.00002904,0.00003413,0.,-0.00008429,0.00010595,0.,0
 .00005722,-0.00005345,0.,0.00005492,0.00001099,0.,-0.00000811,-0.00000
 880,0.,-0.00004789,0.00004195,0.,-0.00003941,-0.00005550,0.,-0.0000498
 8,-0.00002273,0.,0.00002761,0.00003923,0.,0.00024759,0.00112338,0.,-0.
 00086007,-0.00113975,0.,-0.00022462,0.00108049,0.,0.14871684,0.3072980
 8,-0.00094073,0.,0.,0.00036490,0.,0.,0.00961426,0.,0.,0.00000359,0.,0.
 ,-0.00115061,0.,0.,0.00034589,0.,0.,0.00353050,0.,0.,0.00396254,0.,0.,
 0.00294286,0.,0.,-0.03147663,0.,0.,-0.00278996,0.,0.,0.00025039,0.,0.,
 -0.00004314,0.,0.,-0.00011696,0.,0.,0.00030553,0.,0.,-0.00520286,0.,0.
 ,-0.00001592,0.,0.,0.00019914,0.,0.,0.00006100,0.,0.,0.00007703,0.,0.,
 0.01985502,0.,-0.00059190,-0.00004680,0.,0.00017940,-0.00166264,0.,-0.
 00554746,0.00251163,0.,-0.00054393,0.00039248,0.,0.00027403,-0.0000174
 7,0.,-0.00010753,0.00020893,0.,-0.01239724,-0.03161863,0.,-0.00181054,
 0.00271250,0.,0.01114775,0.01496506,0.,-0.13443479,-0.13590391,0.,0.00
 124229,0.00147095,0.,-0.00015899,-0.00036093,0.,0.00014346,-0.00041699
 ,0.,0.00022289,0.00010017,0.,0.00050064,0.00072943,0.,0.00110530,0.000
 26219,0.,-0.00010407,-0.00015951,0.,-0.00004105,0.00005625,0.,-0.00001
 832,-0.00006879,0.,-0.00000459,-0.00002418,0.,0.14106453,0.,-0.0000835
 3,0.00013133,0.,-0.00002126,-0.00007195,0.,0.00073914,0.00150046,0.,0.
 00072193,0.00017907,0.,-0.00012829,0.00001711,0.,0.00006606,-0.0000290
 3,0.,0.00205134,0.00419555,0.,0.00436264,-0.00240341,0.,-0.01591284,-0
 .02020584,0.,-0.13640938,-0.29575994,0.,-0.00251079,0.00114151,0.,0.00
 130511,0.00039716,0.,0.00034065,0.00006111,0.,0.00007987,0.00019448,0.
 ,-0.00140690,-0.00072264,0.,-0.00026219,0.00101968,0.,-0.00000281,-0.0
 0000209,0.,-0.00001520,0.00001184,0.,0.00003956,0.00002205,0.,-0.00001
 992,-0.00001604,0.,0.14669420,0.31073237,0.00001536,0.,0.,-0.00000092,
 0.,0.,0.00027102,0.,0.,-0.00109886,0.,0.,0.00013948,0.,0.,-0.00015921,
 0.,0.,-0.00071591,0.,0.,-0.00023977,0.,0.,0.00905631,0.,0.,0.00044013,
 0.,0.,0.00329699,0.,0.,-0.00492982,0.,0.,-0.03185338,0.,0.,0.00206159,
 0.,0.,0.00565337,0.,0.,-0.00001592,0.,0.,0.00003831,0.,0.,0.00000309,0
 .,0.,0.00010501,0.,0.,0.00000112,0.,0.,0.00010996,0.,0.,0.02063671,0.,
 -0.00000792,-0.00000852,0.,0.00000458,-0.00001964,0.,0.00003744,0.0000
 7230,0.,0.00004763,0.00000573,0.,-0.00006624,-0.00006516,0.,-0.0000042
 9,0.00000657,0.,-0.00010904,0.00037948,0.,0.00070621,-0.00000462,0.,0.
 00096141,0.00323687,0.,-0.00075097,-0.00058732,0.,-0.01301052,-0.00253
 000,0.,0.00108020,0.00021174,0.,-0.37370147,-0.00035240,0.,-0.01154036
 ,0.00274778,0.,0.00064481,-0.00319500,0.,-0.00010407,0.00000281,0.,-0.
 00002213,0.00000287,0.,-0.00000594,0.00001339,0.,0.00002207,0.00006056
 ,0.,-0.00001451,-0.00001431,0.,0.00001830,0.00005205,0.,0.39558474,0.,
 -0.00001282,-0.00008602,0.,0.00005516,0.00007372,0.,-0.00020302,-0.000
 24680,0.,-0.00021661,0.00023118,0.,0.00005382,-0.00006715,0.,-0.000046
 23,0.00012635,0.,0.00034889,-0.00036659,0.,0.00045840,-0.00131910,0.,0
 .00165559,-0.00509961,0.,0.00112603,0.00089306,0.,0.03139038,0.0047419
 7,0.,-0.00033830,0.00114309,0.,-0.00152250,-0.05755912,0.,-0.03021941,
 0.00496974,0.,-0.00188960,-0.00512632,0.,0.00015951,-0.00000209,0.,-0.
 00000287,0.00001394,0.,-0.00000589,0.00000397,0.,0.00000951,0.00010315
 ,0.,-0.00000075,0.00000274,0.,-0.00002335,-0.00003114,0.,0.00007067,0.
 05642488,0.00007272,0.,0.,0.00000709,0.,0.,-0.00078651,0.,0.,0.0003376
 0,0.,0.,0.00035412,0.,0.,-0.00008126,0.,0.,0.00030169,0.,0.,0.00914327
 ,0.,0.,-0.00034699,0.,0.,-0.00114281,0.,0.,0.00572592,0.,0.,0.00034146
 ,0.,0.,0.00215489,0.,0.,-0.03178511,0.,0.,0.00307961,0.,0.,0.00007703,
 0.,0.,0.00000112,0.,0.,-0.00004763,0.,0.,-0.00007370,0.,0.,-0.00000332
 ,0.,0.,0.00004659,0.,0.,-0.00308526,0.,0.,0.02056724,0.,-0.00000365,0.
 00006660,0.,-0.00008243,0.00014525,0.,-0.00054771,-0.00002535,0.,0.000
 26850,0.00190944,0.,0.00001410,0.00005408,0.,0.00006978,-0.00009667,0.
 ,-0.00015633,-0.00021345,0.,-0.00574470,-0.00229152,0.,-0.00094903,-0.
 00057776,0.,0.00032645,-0.00002390,0.,-0.00139889,-0.00312499,0.,0.000
 47322,-0.00087209,0.,0.01267575,-0.01579562,0.,-0.13882127,0.13770082,
 0.,-0.01263418,0.03137827,0.,-0.00000459,0.00001992,0.,-0.00001451,0.0
 0000075,0.,-0.00006556,0.00001268,0.,-0.00003615,-0.00004023,0.,-0.000
 04149,-0.00001011,0.,-0.00000619,0.00008250,0.,0.00089144,0.00064490,0
 .,0.14457825,0.,0.00004789,0.00004195,0.,-0.00005492,0.00001099,0.,0.0
 0008429,0.00010595,0.,0.00002904,0.00003413,0.,0.00004988,-0.00002273,
 0.,0.00003941,-0.00005550,0.,-0.00005722,-0.00005345,0.,-0.00071855,0.
 00149275,0.,-0.00097162,0.00037441,0.,0.00014628,0.00005530,0.,-0.0044
 1537,-0.00308083,0.,0.00086007,-0.00113975,0.,0.01708711,-0.01932934,0
 .,0.13879803,-0.29226832,0.,-0.00218605,0.00434212,0.,0.00002418,-0.00
 001604,0.,0.00001431,0.00000274,0.,0.00000811,-0.00000880,0.,-0.000027
 59,-0.00004387,0.,0.00001011,0.00001708,0.,-0.00002761,0.00003923,0.,-
 0.00024759,0.00112338,0.,-0.14871684,0.30729808,0.00001462,0.,0.,-0.00
 003033,0.,0.,-0.00005072,0.,0.,-0.00240576,0.,0.,-0.00072034,0.,0.,-0.
 00024847,0.,0.,-0.00030583,0.,0.,0.00231124,0.,0.,0.00532441,0.,0.,0.0
 0042126,0.,0.,0.00015106,0.,0.,-0.00152595,0.,0.,0.00842620,0.,0.,0.00
 344020,0.,0.,-0.03194848,0.,0.,0.00006100,0.,0.,0.00010501,0.,0.,0.000
 04826,0.,0.,0.00313400,0.,0.,-0.00007370,0.,0.,0.00006759,0.,0.,0.0002
 7060,0.,0.,-0.00485774,0.,0.,0.01839185,0.,-0.00006939,-0.00010972,0.,
 0.00010811,-0.00016310,0.,-0.00005491,-0.00000389,0.,-0.00040312,-0.00
 163079,0.,-0.00544953,0.00241905,0.,-0.00006099,0.00006495,0.,0.000189
 36,-0.00004780,0.,0.01367377,0.01294382,0.,-0.00193956,0.00279663,0.,0
 .00065143,0.00066533,0.,-0.00057496,0.00081551,0.,0.00013490,-0.000151
 56,0.,-0.00541116,0.00176788,0.,-0.01211570,-0.03083552,0.,-0.12938346
 ,-0.13373839,0.,-0.00001832,-0.00003956,0.,0.00002207,-0.00000951,0.,0
 .00004372,-0.00001322,0.,-0.00816617,0.00053329,0.,-0.00003615,0.00002
 759,0.,-0.00013196,0.00023807,0.,-0.00066135,-0.00149152,0.,0.00120919
 ,0.00022462,0.,0.14844416,0.,-0.00017653,0.00004243,0.,-0.00013791,0.0
 0013481,0.,0.00020407,-0.00019348,0.,-0.00230507,-0.00035808,0.,-0.001
 81684,-0.00069877,0.,-0.00002263,0.00118775,0.,-0.00003826,-0.00004660
 ,0.,-0.01521852,-0.02073565,0.,0.00451022,-0.00217836,0.,-0.00129605,-
 0.00074824,0.,0.00075425,0.00008587,0.,-0.00015414,-0.00002812,0.,0.00
 040433,0.00158431,0.,0.00202114,0.00381156,0.,-0.13215861,-0.29733023,
 0.,0.00006879,0.00002205,0.,-0.00006056,0.00010315,0.,0.00001544,0.000
 01146,0.,-0.00053329,0.00309068,0.,0.00004023,-0.00004387,0.,0.0002270
 3,-0.00040089,0.,0.00016172,0.00005277,0.,-0.00022665,0.00108049,0.,0.
 14573784,0.31155497||0.,0.00722303,0.01124037,0.,0.00066772,-0.0009621
 8,0.,0.01341115,-0.00748183,0.,0.01347350,0.00971802,0.,0.00227985,-0.
 00048461,0.,0.01339796,-0.00084880,0.,-0.01543518,-0.00901177,0.,-0.01
 347350,0.00971802,0.,-0.01341115,-0.00748183,0.,0.01543518,-0.00901177
 ,0.,-0.00066772,-0.00096218,0.,-0.00465651,-0.01179531,0.,-0.00722303,
 0.01124037,0.,-0.01339796,-0.00084880,0.,-0.00227985,-0.00048461,0.,0.
 00787949,-0.00981769,0.,0.01248954,0.00103389,0.,0.00465651,-0.0117953
 1,0.,-0.00037289,0.00820675,0.,0.00726317,0.01020316,0.,-0.00787949,-0
 .00981769,0.,-0.01248954,0.00103389,0.,-0.00726317,0.01020316,0.,0.000
 37289,0.00820675|||@


 We make a living by what we get,
 we make a life by what we give.
                   -- Sir Winston Churchill
 Job cpu time:       0 days  0 hours 26 minutes 11.0 seconds.
 Elapsed time:       0 days  0 hours 26 minutes  9.0 seconds.
 File lengths (MBytes):  RWF=     92 Int=      0 D2E=      0 Chk=      5 Scr=      1
 Normal termination of Gaussian 16 at Wed Oct 12 17:10:36 2022.
