Title Card Required                                                     
Freq      RB3LYP                                                      6-31G(d)            
Number of atoms                            I                6
Info1-9                                    I   N=           9
          13          13        1002           0           0         100
           6          18        -502
Full Title                                 C   N=           2
Title Card Required     
Route                                      C   N=           4
# opt freq b3lyp/6-31g(d) pop=full gfinput      
Charge                                     I                0
Multiplicity                               I                1
Number of electrons                        I               16
Number of alpha electrons                  I                8
Number of beta electrons                   I                8
Number of basis functions                  I               38
Number of independent functions            I               38
Number of point charges in /Mol/           I                0
Number of translation vectors              I                0
Atomic numbers                             I   N=           6
           6           1           1           6           1           1
Nuclear charges                            R   N=           6
  6.00000000E+00  1.00000000E+00  1.00000000E+00  6.00000000E+00  1.00000000E+00
  1.00000000E+00
Current cartesian coordinates              R   N=          18
 -7.07776446E-16  5.26986271E-17  1.25748801E+00 -1.01118922E-14  1.74548711E+00
  2.34241191E+00  7.09232278E-15 -1.74548711E+00  2.34241191E+00  1.05760653E-15
  2.81252412E-18 -1.25748801E+00  1.00939639E-14 -1.74548711E+00 -2.34241191E+00
 -6.82338836E-15  1.74548711E+00 -2.34241191E+00
Number of symbols in /Mol/                 I                0
Int Atom Types                             I   N=           6
           0           0           0           0           0           0
Force Field                                I                0
Atom Types                                 C   N=           6
                                                            
            
MM charges                                 R   N=           6
  0.00000000E+00  0.00000000E+00  0.00000000E+00  0.00000000E+00  0.00000000E+00
  0.00000000E+00
Integer atomic weights                     I   N=           6
          12           1           1          12           1           1
Real atomic weights                        R   N=           6
  1.20000000E+01  1.00782504E+00  1.00782504E+00  1.20000000E+01  1.00782504E+00
  1.00782504E+00
Atom fragment info                         I   N=           6
           0           0           0           0           0           0
Atom residue num                           I   N=           6
           0           0           0           0           0           0
Nuclear spins                              I   N=           6
           0           1           1           0           1           1
Nuclear ZEff                               R   N=           6
 -3.60000000E+00 -1.00000000E+00 -1.00000000E+00 -3.60000000E+00 -1.00000000E+00
 -1.00000000E+00
Nuclear ZNuc                               R   N=           6
  6.00000000E+00  1.00000000E+00  1.00000000E+00  6.00000000E+00  1.00000000E+00
  1.00000000E+00
Nuclear QMom                               R   N=           6
  0.00000000E+00  0.00000000E+00  0.00000000E+00  0.00000000E+00  0.00000000E+00
  0.00000000E+00
Nuclear GFac                               R   N=           6
  0.00000000E+00  2.79284600E+00  2.79284600E+00  0.00000000E+00  2.79284600E+00
  2.79284600E+00
MicOpt                                     I   N=           6
          -1          -1          -1          -1          -1          -1
Number of residues                         I                0
Number of secondary structures             I                0
Redundant internal dimensions              I   N=           4
          15           5           6           4
Redundant internal coordinate indices      I   N=          60
           1           2           0           0           1           3
           0           0           1           4           0           0
           4           5           0           0           4           6
           0           0           2           1           3           0
           2           1           4           0           3           1
           4           0           1           4           5           0
           1           4           6           0           5           4
           6           0           2           1           4           5
           2           1           4           6           3           1
           4           5           3           1           4           6
Redundant internal coordinates             R   N=          15
  2.05518493E+00  2.05518493E+00  2.51497603E+00  2.05518493E+00  2.05518493E+00
  2.02934998E+00  2.12691767E+00  2.12691767E+00  2.12691767E+00  2.12691767E+00
  2.02934998E+00  3.14159265E+00 -0.00000000E+00  0.00000000E+00  3.14159265E+00
ZRed-IntVec                                I   N=          15
           0           0           0           0           0           0
           0           0           0           0           0           0
           0           0           0
ZRed-FPVec                                 R   N=          15
  0.00000000E+00  0.00000000E+00  0.00000000E+00  0.00000000E+00  0.00000000E+00
  0.00000000E+00  0.00000000E+00  0.00000000E+00  0.00000000E+00  0.00000000E+00
  0.00000000E+00  0.00000000E+00  0.00000000E+00  0.00000000E+00  0.00000000E+00
ZRed-Constraint1                           R   N=          15
  2.05518493E+00  2.05518493E+00  2.51497603E+00  2.05518493E+00  2.05518493E+00
  2.02934998E+00  2.12691767E+00  2.12691767E+00  2.12691767E+00  2.12691767E+00
  2.02934998E+00  3.14159265E+00 -0.00000000E+00  0.00000000E+00  3.14159265E+00
ZRed-Constraint2                           R   N=          15
  2.05518493E+00  2.05518493E+00  2.51497603E+00  2.05518493E+00  2.05518493E+00
  2.02934998E+00  2.12691767E+00  2.12691767E+00  2.12691767E+00  2.12691767E+00
  2.02934998E+00  3.14159265E+00  0.00000000E+00  0.00000000E+00  3.14159265E+00
SymInf integers                            I   N=          26
           4           8           1           1           1          -1
          -1           1          -1           1          -1           1
          -1          -1          -1           1           1           1
          -1           1           1           1          -1          -1
          -1          -1
RotTr to input orientation                 R   N=          12
  1.00000000E+00  4.98943114E-15  6.40715893E-16 -4.98943114E-15  1.00000000E+00
 -1.98356177E-17 -6.40715893E-16  1.98356177E-17  1.00000000E+00  9.79161109E-17
  2.77555756E-17  5.55111512E-17
Number of contracted shells                I               16
Number of primitive shells                 I               38
Pure/Cartesian d shells                    I                1
Pure/Cartesian f shells                    I                0
Highest angular momentum                   I                2
Largest degree of contraction              I                6
Shell types                                I   N=          16
           0          -1          -1           2           0           0
           0           0           0          -1          -1           2
           0           0           0           0
Number of primitives per shell             I   N=          16
           6           3           1           1           3           1
           3           1           6           3           1           1
           3           1           3           1
Shell to atom map                          I   N=          16
           1           1           1           1           2           2
           3           3           4           4           4           4
           5           5           6           6
Primitive exponents                        R   N=          38
  3.04752488E+03  4.57369518E+02  1.03948685E+02  2.92101553E+01  9.28666296E+00
  3.16392696E+00  7.86827235E+00  1.88128854E+00  5.44249258E-01  1.68714478E-01
  8.00000000E-01  1.87311370E+01  2.82539436E+00  6.40121692E-01  1.61277759E-01
  1.87311370E+01  2.82539436E+00  6.40121692E-01  1.61277759E-01  3.04752488E+03
  4.57369518E+02  1.03948685E+02  2.92101553E+01  9.28666296E+00  3.16392696E+00
  7.86827235E+00  1.88128854E+00  5.44249258E-01  1.68714478E-01  8.00000000E-01
  1.87311370E+01  2.82539436E+00  6.40121692E-01  1.61277759E-01  1.87311370E+01
  2.82539436E+00  6.40121692E-01  1.61277759E-01
Contraction coefficients                   R   N=          38
  1.83473713E-03  1.40373228E-02  6.88426223E-02  2.32184443E-01  4.67941348E-01
  3.62311985E-01 -1.19332420E-01 -1.60854152E-01  1.14345644E+00  1.00000000E+00
  1.00000000E+00  3.34946043E-02  2.34726953E-01  8.13757326E-01  1.00000000E+00
  3.34946043E-02  2.34726953E-01  8.13757326E-01  1.00000000E+00  1.83473713E-03
  1.40373228E-02  6.88426223E-02  2.32184443E-01  4.67941348E-01  3.62311985E-01
 -1.19332420E-01 -1.60854152E-01  1.14345644E+00  1.00000000E+00  1.00000000E+00
  3.34946043E-02  2.34726953E-01  8.13757326E-01  1.00000000E+00  3.34946043E-02
  2.34726953E-01  8.13757326E-01  1.00000000E+00
P(S=P) Contraction coefficients            R   N=          38
  0.00000000E+00  0.00000000E+00  0.00000000E+00  0.00000000E+00  0.00000000E+00
  0.00000000E+00  6.89990666E-02  3.16423961E-01  7.44308291E-01  1.00000000E+00
  0.00000000E+00  0.00000000E+00  0.00000000E+00  0.00000000E+00  0.00000000E+00
  0.00000000E+00  0.00000000E+00  0.00000000E+00  0.00000000E+00  0.00000000E+00
  0.00000000E+00  0.00000000E+00  0.00000000E+00  0.00000000E+00  0.00000000E+00
  6.89990666E-02  3.16423961E-01  7.44308291E-01  1.00000000E+00  0.00000000E+00
  0.00000000E+00  0.00000000E+00  0.00000000E+00  0.00000000E+00  0.00000000E+00
  0.00000000E+00  0.00000000E+00  0.00000000E+00
Coordinates of each shell                  R   N=          48
 -4.34599799E-32 -2.19667530E-30  1.25748801E+00 -4.34599799E-32 -2.19667530E-30
  1.25748801E+00 -4.34599799E-32 -2.19667530E-30  1.25748801E+00 -4.34599799E-32
 -2.19667530E-30  1.25748801E+00  1.82801867E-30  1.74548711E+00  2.34241191E+00
  1.82801867E-30  1.74548711E+00  2.34241191E+00 -2.13760520E-16 -1.74548711E+00
  2.34241191E+00 -2.13760520E-16 -1.74548711E+00  2.34241191E+00  1.53997867E-16
 -4.25577053E-34 -1.25748801E+00  1.53997867E-16 -4.25577053E-34 -1.25748801E+00
  1.53997867E-16 -4.25577053E-34 -1.25748801E+00  1.53997867E-16 -4.25577053E-34
 -1.25748801E+00 -2.13760520E-16 -1.74548711E+00 -2.34241191E+00 -2.13760520E-16
 -1.74548711E+00 -2.34241191E+00  2.86862724E-16  1.74548711E+00 -2.34241191E+00
  2.86862724E-16  1.74548711E+00 -2.34241191E+00
Num ILSW                                   I              100
ILSW                                       I   N=         100
           0           1           0           0           2           0
           0           0           0           0         402          -1
           5           0           0           0           2           0
           0           0           1           0           1           0
           1           0           0           0           0           0
           0           0      100000           0          -1           0
           0           0           0           0           0           0
           0           0           0           1           0           0
           0 -2000000000           1           0           0           0
           0           0           4          52           0           0
           0           0           5           0           0           0
           0           0           0           0           0           1
           0           0           0           0           0           0
           0           0           0           0           0           0
           0           0           0           0           0           0
           0           0           0           0           0           0
           0           0           0           0
Num RLSW                                   I               52
RLSW                                       R   N=          52
  8.00000000E-01  7.20000000E-01  1.00000000E+00  8.10000000E-01  2.00000000E-01
  0.00000000E+00  0.00000000E+00  1.00000000E+00  0.00000000E+00  0.00000000E+00
  0.00000000E+00  0.00000000E+00  1.00000000E+00  0.00000000E+00  0.00000000E+00
  0.00000000E+00  0.00000000E+00  1.00000000E+00  0.00000000E+00  0.00000000E+00
  0.00000000E+00  0.00000000E+00  1.00000000E+00  0.00000000E+00  0.00000000E+00
  0.00000000E+00  0.00000000E+00  1.00000000E+00  0.00000000E+00  0.00000000E+00
  0.00000000E+00  0.00000000E+00  1.00000000E+00  0.00000000E+00  0.00000000E+00
  0.00000000E+00  0.00000000E+00  0.00000000E+00  1.00000000E+00  1.00000000E+00
  0.00000000E+00  1.00000000E+00  0.00000000E+00  0.00000000E+00  0.00000000E+00
  0.00000000E+00  0.00000000E+00  0.00000000E+00  0.00000000E+00  0.00000000E+00
  0.00000000E+00  0.00000000E+00
MxBond                                     I                3
NBond                                      I   N=           6
           3           1           1           3           1           1
IBond                                      I   N=          18
           2           3           4           1           0           0
           1           0           0           1           5           6
           4           0           0           4           0           0
RBond                                      R   N=          18
  1.00000000E+00  1.00000000E+00  2.00000000E+00  1.00000000E+00  0.00000000E+00
  0.00000000E+00  1.00000000E+00  0.00000000E+00  0.00000000E+00  2.00000000E+00
  1.00000000E+00  1.00000000E+00  1.00000000E+00  0.00000000E+00  0.00000000E+00
  1.00000000E+00  0.00000000E+00  0.00000000E+00
Virial Ratio                               R      2.010512859700555E+00
SCF Energy                                 R     -7.858745866288828E+01
Total Energy                               R     -7.858745866288828E+01
RMS Force                                  R      5.369937938350947E-05
RMS Density                                R      8.492062795199716E-11
NImag                                      I                0
Job Status                                 I                1
Nuclear derivative order                   I                2
Thermal Energy                             R     -7.853319560449334E+01
Thermal Enthalpy                           R     -7.853225141967971E+01
Thermal Free Energy                        R     -7.855711243731265E+01
External E-field                           R   N=          35
  0.00000000E+00  0.00000000E+00  0.00000000E+00  0.00000000E+00  0.00000000E+00
  0.00000000E+00  0.00000000E+00  0.00000000E+00  0.00000000E+00  0.00000000E+00
  0.00000000E+00  0.00000000E+00  0.00000000E+00  0.00000000E+00  0.00000000E+00
  0.00000000E+00  0.00000000E+00  0.00000000E+00  0.00000000E+00  0.00000000E+00
  0.00000000E+00  0.00000000E+00  0.00000000E+00  0.00000000E+00  0.00000000E+00
  0.00000000E+00  0.00000000E+00  0.00000000E+00  0.00000000E+00  0.00000000E+00
  0.00000000E+00  0.00000000E+00  0.00000000E+00  0.00000000E+00  0.00000000E+00
IOpCl                                      I                0
IROHF                                      I                0
Alpha Orbital Energies                     R   N=          38
 -1.01842791E+01 -1.01833858E+01 -7.54752613E-01 -5.77299677E-01 -4.64666192E-01
 -4.16399596E-01 -3.53191703E-01 -2.66642380E-01  1.88038464E-02  1.22343067E-01
  1.40217045E-01  1.57541076E-01  2.44052029E-01  3.32380609E-01  4.80323412E-01
  5.48445189E-01  5.68606089E-01  6.37278457E-01  6.55227614E-01  6.99088569E-01
  8.47424024E-01  8.72149185E-01  9.31650210E-01  9.41026060E-01  1.10577464E+00
  1.21583738E+00  1.46276377E+00  1.54516502E+00  1.83292758E+00  1.89019984E+00
  1.98780514E+00  2.08832681E+00  2.28540239E+00  2.38631991E+00  2.70137099E+00
  2.70540213E+00  4.09688284E+00  4.24630242E+00
Alpha MO coefficients                      R   N=        1444
  7.01781253E-01  3.43943059E-02  0.00000000E+00  0.00000000E+00  2.99321466E-04
 -6.02589897E-03  0.00000000E+00  0.00000000E+00 -7.15424009E-04 -7.00762060E-03
 -6.83273619E-03 -6.69191198E-03  0.00000000E+00  0.00000000E+00  0.00000000E+00
 -2.92503399E-04  1.56141459E-03 -2.92503399E-04  1.56141459E-03  7.01781253E-01
  3.43943059E-02  0.00000000E+00  0.00000000E+00 -2.99321466E-04 -6.02589897E-03
  0.00000000E+00  0.00000000E+00  7.15424009E-04 -7.00762060E-03 -6.83273619E-03
 -6.69191198E-03  0.00000000E+00  0.00000000E+00  0.00000000E+00 -2.92503399E-04
  1.56141459E-03 -2.92503399E-04  1.56141459E-03  7.02131950E-01  3.51859799E-02
  0.00000000E+00  0.00000000E+00 -3.13434320E-04 -1.24302396E-02  0.00000000E+00
  0.00000000E+00  2.02347159E-03 -6.82288695E-03 -6.55471054E-03 -6.27909802E-03
  0.00000000E+00  0.00000000E+00  0.00000000E+00 -1.84692626E-04  1.54575505E-03
 -1.84692626E-04  1.54575505E-03 -7.02131950E-01 -3.51859799E-02  0.00000000E+00
  0.00000000E+00 -3.13434320E-04  1.24302396E-02  0.00000000E+00  0.00000000E+00
  2.02347159E-03  6.82288695E-03  6.55471054E-03  6.27909802E-03  0.00000000E+00
  0.00000000E+00  0.00000000E+00  1.84692626E-04 -1.54575505E-03  1.84692626E-04
 -1.54575505E-03 -1.60407719E-01  3.10069534E-01  0.00000000E+00  0.00000000E+00
 -1.00142177E-01  2.32802605E-01  0.00000000E+00  0.00000000E+00 -4.34091208E-03
 -1.67274734E-02 -1.35773596E-04  7.98792819E-03  0.00000000E+00  0.00000000E+00
  0.00000000E+00  8.43429093E-02  1.78368970E-02  8.43429093E-02  1.78368970E-02
 -1.60407719E-01  3.10069534E-01  0.00000000E+00  0.00000000E+00  1.00142177E-01
  2.32802605E-01  0.00000000E+00  0.00000000E+00  4.34091208E-03 -1.67274734E-02
 -1.35773596E-04  7.98792819E-03  0.00000000E+00  0.00000000E+00  0.00000000E+00
  8.43429093E-02  1.78368970E-02  8.43429093E-02  1.78368970E-02 -1.23086423E-01
  2.47466637E-01  0.00000000E+00  0.00000000E+00  1.72053444E-01  2.30937281E-01
  0.00000000E+00  0.00000000E+00  6.98441525E-02 -1.13415857E-02  1.34853779E-02
 -8.16552184E-03  0.00000000E+00  0.00000000E+00  0.00000000E+00  1.45890554E-01
  6.58808412E-02  1.45890554E-01  6.58808412E-02  1.23086423E-01 -2.47466637E-01
  0.00000000E+00  0.00000000E+00  1.72053444E-01 -2.30937281E-01  0.00000000E+00
  0.00000000E+00  6.98441525E-02  1.13415857E-02 -1.34853779E-02  8.16552184E-03
  0.00000000E+00  0.00000000E+00  0.00000000E+00 -1.45890554E-01 -6.58808412E-02
 -1.45890554E-01 -6.58808412E-02  0.00000000E+00  0.00000000E+00  0.00000000E+00
  3.31052228E-01  0.00000000E+00  0.00000000E+00  0.00000000E+00  1.21057336E-01
  0.00000000E+00  0.00000000E+00  0.00000000E+00  0.00000000E+00  0.00000000E+00
  0.00000000E+00  6.10184601E-03  1.55267249E-01  1.11999915E-01 -1.55267249E-01
 -1.11999915E-01  0.00000000E+00  0.00000000E+00  0.00000000E+00  3.31052228E-01
  0.00000000E+00  0.00000000E+00  0.00000000E+00  1.21057336E-01  0.00000000E+00
  0.00000000E+00  0.00000000E+00  0.00000000E+00  0.00000000E+00  0.00000000E+00
 -6.10184601E-03 -1.55267249E-01 -1.11999915E-01  1.55267249E-01  1.11999915E-01
  1.46755168E-02 -3.26565704E-02  0.00000000E+00  0.00000000E+00  4.14122516E-01
 -3.21273377E-03  0.00000000E+00  0.00000000E+00  1.41547165E-01  4.92969637E-04
  1.90520789E-02 -5.44037521E-03  0.00000000E+00  0.00000000E+00  0.00000000E+00
  1.24849210E-01  1.08181339E-01  1.24849210E-01  1.08181339E-01  1.46755168E-02
 -3.26565704E-02  0.00000000E+00  0.00000000E+00 -4.14122516E-01 -3.21273377E-03
  0.00000000E+00  0.00000000E+00 -1.41547165E-01  4.92969637E-04  1.90520789E-02
 -5.44037521E-03  0.00000000E+00  0.00000000E+00  0.00000000E+00  1.24849210E-01
  1.08181339E-01  1.24849210E-01  1.08181339E-01  0.00000000E+00  0.00000000E+00
  0.00000000E+00  3.09491783E-01  0.00000000E+00  0.00000000E+00  0.00000000E+00
  1.16805700E-01  0.00000000E+00  0.00000000E+00  0.00000000E+00  0.00000000E+00
  0.00000000E+00  0.00000000E+00  3.05815427E-02  1.97279413E-01  1.96956791E-01
 -1.97279413E-01 -1.96956791E-01  0.00000000E+00  0.00000000E+00  0.00000000E+00
 -3.09491783E-01  0.00000000E+00  0.00000000E+00  0.00000000E+00 -1.16805700E-01
  0.00000000E+00  0.00000000E+00  0.00000000E+00  0.00000000E+00  0.00000000E+00
  0.00000000E+00  3.05815427E-02  1.97279413E-01  1.96956791E-01 -1.97279413E-01
 -1.96956791E-01  0.00000000E+00  0.00000000E+00  4.01443080E-01  0.00000000E+00
  0.00000000E+00  0.00000000E+00  2.84527906E-01  0.00000000E+00  0.00000000E+00
  0.00000000E+00  0.00000000E+00  0.00000000E+00  0.00000000E+00 -1.61154467E-02
  0.00000000E+00  0.00000000E+00  0.00000000E+00  0.00000000E+00  0.00000000E+00
  0.00000000E+00  0.00000000E+00  4.01443080E-01  0.00000000E+00  0.00000000E+00
  0.00000000E+00  2.84527906E-01  0.00000000E+00  0.00000000E+00  0.00000000E+00
  0.00000000E+00  0.00000000E+00  0.00000000E+00  1.61154467E-02  0.00000000E+00
  0.00000000E+00  0.00000000E+00  0.00000000E+00  0.00000000E+00  0.00000000E+00
  0.00000000E+00  4.18975517E-01  0.00000000E+00  0.00000000E+00  0.00000000E+00
  6.32164182E-01  0.00000000E+00  0.00000000E+00  0.00000000E+00  0.00000000E+00
  0.00000000E+00  0.00000000E+00  2.50610630E-02  0.00000000E+00  0.00000000E+00
  0.00000000E+00  0.00000000E+00  0.00000000E+00  0.00000000E+00  0.00000000E+00
 -4.18975517E-01  0.00000000E+00  0.00000000E+00  0.00000000E+00 -6.32164182E-01
  0.00000000E+00  0.00000000E+00  0.00000000E+00  0.00000000E+00  0.00000000E+00
  0.00000000E+00  2.50610630E-02  0.00000000E+00  0.00000000E+00  0.00000000E+00
  0.00000000E+00  0.00000000E+00 -8.17610938E-02  1.27034790E-01  0.00000000E+00
  0.00000000E+00  1.83412561E-01  1.38048402E+00  0.00000000E+00  0.00000000E+00
  5.91283411E-01 -3.50229086E-03 -1.38828955E-02  4.43086343E-03  0.00000000E+00
  0.00000000E+00  0.00000000E+00 -4.04155781E-02 -9.76855251E-01 -4.04155781E-02
 -9.76855251E-01 -8.17610938E-02  1.27034790E-01  0.00000000E+00  0.00000000E+00
 -1.83412561E-01  1.38048402E+00  0.00000000E+00  0.00000000E+00 -5.91283411E-01
 -3.50229086E-03 -1.38828955E-02  4.43086343E-03  0.00000000E+00  0.00000000E+00
  0.00000000E+00 -4.04155781E-02 -9.76855251E-01 -4.04155781E-02 -9.76855251E-01
  0.00000000E+00  0.00000000E+00  0.00000000E+00 -3.04649870E-01  0.00000000E+00
  0.00000000E+00  0.00000000E+00 -7.09552887E-01  0.00000000E+00  0.00000000E+00
  0.00000000E+00  0.00000000E+00  0.00000000E+00  0.00000000E+00  2.63699691E-02
  7.70251042E-02  9.99047701E-01 -7.70251042E-02 -9.99047701E-01  0.00000000E+00
  0.00000000E+00  0.00000000E+00 -3.04649870E-01  0.00000000E+00  0.00000000E+00
  0.00000000E+00 -7.09552887E-01  0.00000000E+00  0.00000000E+00  0.00000000E+00
  0.00000000E+00  0.00000000E+00  0.00000000E+00 -2.63699691E-02 -7.70251042E-02
 -9.99047701E-01  7.70251042E-02  9.99047701E-01 -1.14288638E-01  1.60845420E-01
  0.00000000E+00  0.00000000E+00  1.16370848E-01  1.82777920E+00  0.00000000E+00
  0.00000000E+00  1.04369875E-01 -9.57857661E-03 -1.84141704E-03 -9.07439547E-03
  0.00000000E+00  0.00000000E+00  0.00000000E+00 -5.24409549E-02 -9.97062031E-01
 -5.24409549E-02 -9.97062031E-01  1.14288638E-01 -1.60845420E-01  0.00000000E+00
  0.00000000E+00  1.16370848E-01 -1.82777920E+00  0.00000000E+00  0.00000000E+00
  1.04369875E-01  9.57857661E-03  1.84141704E-03  9.07439547E-03  0.00000000E+00
  0.00000000E+00  0.00000000E+00  5.24409549E-02  9.97062031E-01  5.24409549E-02
  9.97062031E-01  0.00000000E+00  0.00000000E+00  0.00000000E+00  3.28694862E-01
  0.00000000E+00  0.00000000E+00  0.00000000E+00  1.65598203E+00  0.00000000E+00
  0.00000000E+00  0.00000000E+00  0.00000000E+00  0.00000000E+00  0.00000000E+00
  1.89502908E-02  1.83418631E-02 -1.48190075E+00 -1.83418631E-02  1.48190075E+00
  0.00000000E+00  0.00000000E+00  0.00000000E+00 -3.28694862E-01  0.00000000E+00
  0.00000000E+00  0.00000000E+00 -1.65598203E+00  0.00000000E+00  0.00000000E+00
  0.00000000E+00  0.00000000E+00  0.00000000E+00  0.00000000E+00  1.89502908E-02
  1.83418631E-02 -1.48190075E+00 -1.83418631E-02  1.48190075E+00 -7.12992027E-02
  3.33708219E-02  0.00000000E+00  0.00000000E+00 -1.98718842E-01  2.96890216E+00
  0.00000000E+00  0.00000000E+00 -2.84547113E+00 -1.01484471E-02  2.59204780E-02
 -1.96722829E-02  0.00000000E+00  0.00000000E+00  0.00000000E+00  8.37731376E-02
  5.51178664E-01  8.37731376E-02  5.51178664E-01  7.12992027E-02 -3.33708219E-02
  0.00000000E+00  0.00000000E+00 -1.98718842E-01 -2.96890216E+00  0.00000000E+00
  0.00000000E+00 -2.84547113E+00  1.01484471E-02 -2.59204780E-02  1.96722829E-02
  0.00000000E+00  0.00000000E+00  0.00000000E+00 -8.37731376E-02 -5.51178664E-01
 -8.37731376E-02 -5.51178664E-01  2.03381780E-02  1.90535941E-01  0.00000000E+00
  0.00000000E+00 -5.60868613E-01  2.87207613E-01  0.00000000E+00  0.00000000E+00
  1.06283990E+00 -3.77433808E-03 -3.72880420E-02  7.68678238E-02  0.00000000E+00
  0.00000000E+00  0.00000000E+00 -6.82189391E-02 -1.25941419E-01 -6.82189391E-02
 -1.25941419E-01  2.03381780E-02  1.90535941E-01  0.00000000E+00  0.00000000E+00
  5.60868613E-01  2.87207613E-01  0.00000000E+00  0.00000000E+00 -1.06283990E+00
 -3.77433808E-03 -3.72880420E-02  7.68678238E-02  0.00000000E+00  0.00000000E+00
  0.00000000E+00 -6.82189391E-02 -1.25941419E-01 -6.82189391E-02 -1.25941419E-01
  0.00000000E+00  0.00000000E+00  7.29859338E-01  0.00000000E+00  0.00000000E+00
  0.00000000E+00 -6.50024156E-01  0.00000000E+00  0.00000000E+00  0.00000000E+00
  0.00000000E+00  0.00000000E+00  0.00000000E+00 -5.57387705E-02  0.00000000E+00
  0.00000000E+00  0.00000000E+00  0.00000000E+00  0.00000000E+00  0.00000000E+00
  0.00000000E+00  7.29859338E-01  0.00000000E+00  0.00000000E+00  0.00000000E+00
 -6.50024156E-01  0.00000000E+00  0.00000000E+00  0.00000000E+00  0.00000000E+00
  0.00000000E+00  0.00000000E+00  5.57387705E-02  0.00000000E+00  0.00000000E+00
  0.00000000E+00  0.00000000E+00  0.00000000E+00  0.00000000E+00  0.00000000E+00
  0.00000000E+00 -4.07179756E-01  0.00000000E+00  0.00000000E+00  0.00000000E+00
  7.71470000E-01  0.00000000E+00  0.00000000E+00  0.00000000E+00  0.00000000E+00
  0.00000000E+00  0.00000000E+00 -9.51057438E-02 -3.84273444E-01 -6.47586711E-02
  3.84273444E-01  6.47586711E-02  0.00000000E+00  0.00000000E+00  0.00000000E+00
 -4.07179756E-01  0.00000000E+00  0.00000000E+00  0.00000000E+00  7.71470000E-01
  0.00000000E+00  0.00000000E+00  0.00000000E+00  0.00000000E+00  0.00000000E+00
  0.00000000E+00  9.51057438E-02  3.84273444E-01  6.47586711E-02 -3.84273444E-01
 -6.47586711E-02  0.00000000E+00  0.00000000E+00 -7.84158552E-01  0.00000000E+00
  0.00000000E+00  0.00000000E+00  1.13941619E+00  0.00000000E+00  0.00000000E+00
  0.00000000E+00  0.00000000E+00  0.00000000E+00  0.00000000E+00 -1.98557656E-02
  0.00000000E+00  0.00000000E+00  0.00000000E+00  0.00000000E+00  0.00000000E+00
  0.00000000E+00  0.00000000E+00  7.84158552E-01  0.00000000E+00  0.00000000E+00
  0.00000000E+00 -1.13941619E+00  0.00000000E+00  0.00000000E+00  0.00000000E+00
  0.00000000E+00  0.00000000E+00  0.00000000E+00 -1.98557656E-02  0.00000000E+00
  0.00000000E+00  0.00000000E+00  0.00000000E+00  0.00000000E+00 -3.78958313E-02
 -7.08822300E-01  0.00000000E+00  0.00000000E+00  3.25879213E-02  1.35081338E+00
  0.00000000E+00  0.00000000E+00  3.38196400E-01  5.80956156E-02 -1.49092346E-01
 -7.72284673E-02  0.00000000E+00  0.00000000E+00  0.00000000E+00 -4.27699758E-01
 -1.59977065E-01 -4.27699758E-01 -1.59977065E-01 -3.78958313E-02 -7.08822300E-01
  0.00000000E+00  0.00000000E+00 -3.25879213E-02  1.35081338E+00  0.00000000E+00
  0.00000000E+00 -3.38196400E-01  5.80956156E-02 -1.49092346E-01 -7.72284673E-02
  0.00000000E+00  0.00000000E+00  0.00000000E+00 -4.27699758E-01 -1.59977065E-01
 -4.27699758E-01 -1.59977065E-01 -8.79723949E-02  3.55129108E-02  0.00000000E+00
  0.00000000E+00 -6.36550947E-01  4.19813843E-01  0.00000000E+00  0.00000000E+00
  7.35607772E-01  8.91615329E-02 -4.29764552E-02 -1.62471396E-01  0.00000000E+00
  0.00000000E+00  0.00000000E+00 -3.63036940E-01 -1.01048895E-01 -3.63036940E-01
 -1.01048895E-01  8.79723949E-02 -3.55129108E-02  0.00000000E+00  0.00000000E+00
 -6.36550947E-01 -4.19813843E-01  0.00000000E+00  0.00000000E+00  7.35607772E-01
 -8.91615329E-02  4.29764552E-02  1.62471396E-01  0.00000000E+00  0.00000000E+00
  0.00000000E+00  3.63036940E-01  1.01048895E-01  3.63036940E-01  1.01048895E-01
  0.00000000E+00  0.00000000E+00  0.00000000E+00 -6.64363974E-01  0.00000000E+00
  0.00000000E+00  0.00000000E+00  1.13880384E+00  0.00000000E+00  0.00000000E+00
  0.00000000E+00  0.00000000E+00  0.00000000E+00  0.00000000E+00  1.68183005E-01
  3.94113290E-01 -1.12894216E+00 -3.94113290E-01  1.12894216E+00  0.00000000E+00
  0.00000000E+00  0.00000000E+00 -6.64363974E-01  0.00000000E+00  0.00000000E+00
  0.00000000E+00  1.13880384E+00  0.00000000E+00  0.00000000E+00  0.00000000E+00
  0.00000000E+00  0.00000000E+00  0.00000000E+00 -1.68183005E-01 -3.94113290E-01
  1.12894216E+00  3.94113290E-01 -1.12894216E+00  0.00000000E+00  0.00000000E+00
  0.00000000E+00 -8.82371312E-01  0.00000000E+00  0.00000000E+00  0.00000000E+00
  2.67897050E+00  0.00000000E+00  0.00000000E+00  0.00000000E+00  0.00000000E+00
  0.00000000E+00  0.00000000E+00  1.33682048E-02  2.51979449E-01 -1.50160385E+00
 -2.51979449E-01  1.50160385E+00  0.00000000E+00  0.00000000E+00  0.00000000E+00
  8.82371312E-01  0.00000000E+00  0.00000000E+00  0.00000000E+00 -2.67897050E+00
  0.00000000E+00  0.00000000E+00  0.00000000E+00  0.00000000E+00  0.00000000E+00
  0.00000000E+00  1.33682048E-02  2.51979449E-01 -1.50160385E+00 -2.51979449E-01
  1.50160385E+00  2.43076319E-02 -3.74072045E-01  0.00000000E+00  0.00000000E+00