 Entering Gaussian System, Link 0=g16
 Input=O2.gjf
 Output=O2.log
 Initial command:
 /home/fly/software/gaussian/g16/l1.exe "/home/fly/software/gaussian/scr/Gau-90.inp" -scrdir="/home/fly/software/gaussian/scr/"
 Entering Link 1 = /home/fly/software/gaussian/g16/l1.exe PID=        92.
  
 Copyright (c) 1988-2021, Gaussian, Inc.  All Rights Reserved.
  
 This is part of the Gaussian(R) 16 program.  It is based on
 the Gaussian(R) 09 system (copyright 2009, Gaussian, Inc.),
 the Gaussian(R) 03 system (copyright 2003, Gaussian, Inc.),
 the Gaussian(R) 98 system (copyright 1998, Gaussian, Inc.),
 the Gaussian(R) 94 system (copyright 1995, Gaussian, Inc.),
 the Gaussian 92(TM) system (copyright 1992, Gaussian, Inc.),
 the Gaussian 90(TM) system (copyright 1990, Gaussian, Inc.),
 the Gaussian 88(TM) system (copyright 1988, Gaussian, Inc.),
 the Gaussian 86(TM) system (copyright 1986, Carnegie Mellon
 University), and the Gaussian 82(TM) system (copyright 1983,
 Carnegie Mellon University). Gaussian is a federally registered
 trademark of Gaussian, Inc.
  
 This software contains proprietary and confidential information,
 including trade secrets, belonging to Gaussian, Inc.
  
 This software is provided under written license and may be
 used, copied, transmitted, or stored only in accord with that
 written license.
  
 The following legend is applicable only to US Government
 contracts under FAR:
  
                    RESTRICTED RIGHTS LEGEND
  
 Use, reproduction and disclosure by the US Government is
 subject to restrictions as set forth in subparagraphs (a)
 and (c) of the Commercial Computer Software - Restricted
 Rights clause in FAR 52.227-19.
  
 Gaussian, Inc.
 340 Quinnipiac St., Bldg. 40, Wallingford CT 06492
  
  
 ---------------------------------------------------------------
 Warning -- This program may not be used in any manner that
 competes with the business of Gaussian, Inc. or will provide
 assistance to any competitor of Gaussian, Inc.  The licensee
 of this program is prohibited from giving any competitor of
 Gaussian, Inc. access to this program.  By using this program,
 the user acknowledges that Gaussian, Inc. is engaged in the
 business of creating and licensing software in the field of
 computational chemistry and represents and warrants to the
 licensee that it is not a competitor of Gaussian, Inc. and that
 it will not use this program in any manner prohibited above.
 ---------------------------------------------------------------
  

 Cite this work as:
 Gaussian 16, Revision C.02,
 M. J. Frisch, G. W. Trucks, H. B. Schlegel, G. E. Scuseria, 
 M. A. Robb, J. R. Cheeseman, G. Scalmani, V. Barone, 
 G. A. Petersson, H. Nakatsuji, X. Li, M. Caricato, A. V. Marenich, 
 J. Bloino, B. G. Janesko, R. Gomperts, B. Mennucci, H. P. Hratchian, 
 J. V. Ortiz, A. F. Izmaylov, J. L. Sonnenberg, D. Williams-Young, 
 F. Ding, F. Lipparini, F. Egidi, J. Goings, B. Peng, A. Petrone, 
 T. Henderson, D. Ranasinghe, V. G. Zakrzewski, J. Gao, N. Rega, 
 G. Zheng, W. Liang, M. Hada, M. Ehara, K. Toyota, R. Fukuda, 
 J. Hasegawa, M. Ishida, T. Nakajima, Y. Honda, O. Kitao, H. Nakai, 
 T. Vreven, K. Throssell, J. A. Montgomery, Jr., J. E. Peralta, 
 F. Ogliaro, M. J. Bearpark, J. J. Heyd, E. N. Brothers, K. N. Kudin, 
 V. N. Staroverov, T. A. Keith, R. Kobayashi, J. Normand, 
 K. Raghavachari, A. P. Rendell, J. C. Burant, S. S. Iyengar, 
 J. Tomasi, M. Cossi, J. M. Millam, M. Klene, C. Adamo, R. Cammi, 
 J. W. Ochterski, R. L. Martin, K. Morokuma, O. Farkas, 
 J. B. Foresman, and D. J. Fox, Gaussian, Inc., Wallingford CT, 2019.
 
 ******************************************
 Gaussian 16:  ES64L-G16RevC.02  7-Dec-2021
                 3-Oct-2022 
 ******************************************
 %chk=O2.chk
 -------------------------------------------
 # b3lyp/sto-3g pop=full gfinput iop(3/33=1)
 -------------------------------------------
 1/38=1,172=1/1;
 2/12=2,17=6,18=5,40=1/2;
 3/6=3,11=2,24=10,25=1,30=1,33=1,74=-5/1,2,3;
 4//1;
 5/5=2,38=5/2;
 6/7=3,28=1/1;
 99/5=1,9=1/99;
 -------------------
 Title Card Required
 -------------------
 Symbolic Z-matrix:
 Charge =  0 Multiplicity = 1
 O                     0.        0.        0.60797 
 O                     0.        0.       -0.60797 
 
                          Input orientation:                          
 ---------------------------------------------------------------------
 Center     Atomic      Atomic             Coordinates (Angstroms)
 Number     Number       Type             X           Y           Z
 ---------------------------------------------------------------------
      1          8           0        0.000000    0.000000    0.607970
      2          8           0        0.000000    0.000000   -0.607970
 ---------------------------------------------------------------------
 Stoichiometry    O2
 Framework group  D*H[C*(O.O)]
 Deg. of freedom     1
 Full point group                 D*H     NOp   8
 Largest Abelian subgroup         D2H     NOp   8
 Largest concise Abelian subgroup C2      NOp   2
                         Standard orientation:                         
 ---------------------------------------------------------------------
 Center     Atomic      Atomic             Coordinates (Angstroms)
 Number     Number       Type             X           Y           Z
 ---------------------------------------------------------------------
      1          8           0        0.000000    0.000000    0.607970
      2          8           0        0.000000    0.000000   -0.607970
 ---------------------------------------------------------------------
 Rotational constants (GHZ):           0.0000000          42.7406357          42.7406357
 Standard basis: STO-3G (5D, 7F)
                         Coordinates in L301:                         
 ---------------------------------------------------------------------
 Center     Atomic      Atomic             Coordinates (Angstroms)
 Number     Number       Type             X           Y           Z
 ---------------------------------------------------------------------
      1          8           0        0.000000    0.000000    0.607970
      2          8           0        0.000000    0.000000   -0.607970
 ---------------------------------------------------------------------
 FixB: optimizing general contractions.
 Ernie: Thresh=  0.10000D-02 Tol=  0.10000D-05 Strict=F.
 IA=     1 ShT= 0 ShC= 0 NL=   1 NS=   0.
 IA=     1 L=0 SC=0 ISt=    0 NBk=    0 NP=    0 IndPr=    0.
 IA=     1 ShT= 1 ShC= 0 NL=   1 NS=   0.
 IA=     1 L=1 SC=0 ISt=    0 NBk=    0 NP=    0 IndPr=    0.
 IA=     2 ShT= 0 ShC= 0 NL=   1 NS=   0.
 IA=     2 L=0 SC=0 ISt=    0 NBk=    0 NP=    0 IndPr=    0.
 IA=     2 ShT= 1 ShC= 0 NL=   1 NS=   0.
 IA=     2 L=1 SC=0 ISt=    0 NBk=    0 NP=    0 IndPr=    0.
 AO basis set in the form of general basis input (Overlap normalization):
      1 0
 S   3 1.00       0.000000000000
      0.1307093214D+03  0.1543289673D+00
      0.2380886605D+02  0.5353281423D+00
      0.6443608313D+01  0.4446345422D+00
 SP   3 1.00       0.000000000000
      0.5033151319D+01 -0.9996722919D-01  0.1559162750D+00
      0.1169596125D+01  0.3995128261D+00  0.6076837186D+00
      0.3803889600D+00  0.7001154689D+00  0.3919573931D+00
 ****
      2 0
 S   3 1.00       0.000000000000
      0.1307093214D+03  0.1543289673D+00
      0.2380886605D+02  0.5353281423D+00
      0.6443608313D+01  0.4446345422D+00
 SP   3 1.00       0.000000000000
      0.5033151319D+01 -0.9996722919D-01  0.1559162750D+00
      0.1169596125D+01  0.3995128261D+00  0.6076837186D+00
      0.3803889600D+00  0.7001154689D+00  0.3919573931D+00
 ****

 LdAtmC:  AtmChg=     8.000000     8.000000
 AtZEff=     -5.6000000     -5.6000000
 NEqShl: 
              1            2            3            4            5
     1            1            3            1            3            1
     2            2            4            2            4            2
     3            3            1            3            1            3
     4            4            2            4            2            4
              6            7            8
     1            1            3            3
     2            2            4            4
     3            3            1            1
     4            4            2            2
 NEqBas: 
              1            2            3            4            5
     1            1            6            1            6            1
     2            2            7            2            7            2
     3            3           -8           -3            8           -3
     4            4            9           -4           -9            4
     5            5          -10            5          -10            5
     6            6            1            6            1            6
     7            7            2            7            2            7
     8            8           -3           -8            3           -8
     9            9            4           -9           -4            9
    10           10           -5           10           -5           10
              6            7            8
     1            1            6            6
     2            2            7            7
     3            3            8           -8
     4           -4            9           -9
     5            5          -10          -10
     6            6            1            1
     7            7            2            2
     8            8            3           -3
     9           -9            4           -4
    10           10           -5           -5
 There are     3 symmetry adapted cartesian basis functions of AG  symmetry.
   1         1   1   6   6   6   6   1   1
   2         2   2   7   7   7   7   2   2
   3         5   5 -10 -10 -10 -10   5   5
 There are     0 symmetry adapted cartesian basis functions of B1G symmetry.
 There are     1 symmetry adapted cartesian basis functions of B2G symmetry.
   4         3   3  -8  -8  -8  -8   3   3
 There are     1 symmetry adapted cartesian basis functions of B3G symmetry.
   5         4   4  -9  -9  -9  -9   4   4
 There are     0 symmetry adapted cartesian basis functions of AU  symmetry.
 There are     3 symmetry adapted cartesian basis functions of B1U symmetry.
   6         1   1  -6  -6  -6  -6   1   1
   7         2   2  -7  -7  -7  -7   2   2
   8         5   5  10  10  10  10   5   5
 There are     1 symmetry adapted cartesian basis functions of B2U symmetry.
   9         4   4   9   9   9   9   4   4
 There are     1 symmetry adapted cartesian basis functions of B3U symmetry.
  10         3   3   8   8   8   8   3   3
 Order= 1 3 2 4 8 7 6 5
 Reordered character table:
              1            2            3            4            5
     1            1            1            1            1            1
     2            3            1           -1            1           -1
     3            2            1            1           -1           -1
     4            4            1           -1           -1            1
     5            8            1           -1           -1            1
     6            7            1           -1            1           -1
     7            6            1            1           -1           -1
     8            5            1            1            1            1
              6            7            8            9
     1            1            1            1            1
     2            1           -1            1           -1
     3            1            1           -1           -1
     4            1           -1           -1            1
     5           -1            1            1           -1
     6           -1            1           -1            1
     7           -1           -1            1            1
     8           -1           -1           -1           -1
 NEqShl: 
              1            2            3            4            5
     1            1            3            1            3            1
     2            2            4            2            4            2
     3            3            1            3            1            3
     4            4            2            4            2            4
              6            7            8
     1            1            3            3
     2            2            4            4
     3            3            1            1
     4            4            2            2
 NEqBas: 
              1            2            3            4            5
     1            1            6            1            6            1
     2            2            7            2            7            2
     3            3           -8           -3            8           -3
     4            4            9           -4           -9            4
     5            5          -10            5          -10            5
     6            6            1            6            1            6
     7            7            2            7            2            7
     8            8           -3           -8            3           -8
     9            9            4           -9           -4            9
    10           10           -5           10           -5           10
              6            7            8
     1            1            6            6
     2            2            7            7
     3            3            8           -8
     4           -4            9           -9
     5            5          -10          -10
     6            6            1            1
     7            7            2            2
     8            8            3           -3
     9           -9            4           -4
    10           10           -5           -5
 There are     3 symmetry adapted basis functions of AG  symmetry.
   1         1   1   6   6   6   6   1   1
   2         2   2   7   7   7   7   2   2
   3         5   5 -10 -10 -10 -10   5   5
 There are     0 symmetry adapted basis functions of B1G symmetry.
 There are     1 symmetry adapted basis functions of B2G symmetry.
   4         3   3  -8  -8  -8  -8   3   3
 There are     1 symmetry adapted basis functions of B3G symmetry.
   5         4   4  -9  -9  -9  -9   4   4
 There are     0 symmetry adapted basis functions of AU  symmetry.
 There are     3 symmetry adapted basis functions of B1U symmetry.
   6         1   1  -6  -6  -6  -6   1   1
   7         2   2  -7  -7  -7  -7   2   2
   8         5   5  10  10  10  10   5   5
 There are     1 symmetry adapted basis functions of B2U symmetry.
   9         4   4   9   9   9   9   4   4
 There are     1 symmetry adapted basis functions of B3U symmetry.
  10         3   3   8   8   8   8   3   3
 Order= 1 3 2 4 8 7 6 5
 Reordered character table:
              1            2            3            4            5
     1            1            1            1            1            1
     2            3            1           -1            1           -1
     3            2            1            1           -1           -1
     4            4            1           -1           -1            1
     5            8            1           -1           -1            1
     6            7            1           -1            1           -1
     7            6            1            1           -1           -1
     8            5            1            1            1            1
              6            7            8            9
     1            1            1            1            1
     2            1           -1            1           -1
     3            1            1           -1           -1
     4            1           -1           -1            1
     5           -1            1            1           -1
     6           -1            1           -1            1
     7           -1           -1            1            1
     8           -1           -1           -1           -1
    10 basis functions,    30 primitive gaussians,    10 cartesian basis functions
     8 alpha electrons        8 beta electrons
       nuclear repulsion energy        27.8528064698 Hartrees.
 IS=     1 IAt=     1 ISR=     1 T=0 IP=      1 IndIP=      1 IndIPD=      0 C=  4.251943D+00  0.000000D+00                             NZ=T
 IS=     1 IAt=     1 ISR=     1 T=0 IP=      2 IndIP=      2 IndIPD=      1 C=  4.112294D+00  0.000000D+00                             NZ=T
 IS=     1 IAt=     1 ISR=     1 T=0 IP=      3 IndIP=      3 IndIPD=      2 C=  1.281623D+00  0.000000D+00                             NZ=T
 IS=     2 IAt=     1 ISR=     2 T=1 IP=      1 IndIP=      4 IndIPD=      0 C= -2.394130D-01  1.675450D+00                             NZ=T
 IS=     2 IAt=     1 ISR=     2 T=1 IP=      2 IndIP=      5 IndIPD=      1 C=  3.202342D-01  1.053568D+00                             NZ=T
 IS=     2 IAt=     1 ISR=     2 T=1 IP=      3 IndIP=      6 IndIPD=      2 C=  2.416856D-01  1.669029D-01                             NZ=T
 IS=     3 IAt=     2 ISR=     1 T=0 IP=      1 IndIP=      7 IndIPD=      0 C=  4.251943D+00  0.000000D+00                             NZ=T
 IS=     3 IAt=     2 ISR=     1 T=0 IP=      2 IndIP=      8 IndIPD=      1 C=  4.112294D+00  0.000000D+00                             NZ=T
 IS=     3 IAt=     2 ISR=     1 T=0 IP=      3 IndIP=      9 IndIPD=      2 C=  1.281623D+00  0.000000D+00                             NZ=T
 IS=     4 IAt=     2 ISR=     2 T=1 IP=      1 IndIP=     10 IndIPD=      0 C= -2.394130D-01  1.675450D+00                             NZ=T
 IS=     4 IAt=     2 ISR=     2 T=1 IP=      2 IndIP=     11 IndIPD=      1 C=  3.202342D-01  1.053568D+00                             NZ=T
 IS=     4 IAt=     2 ISR=     2 T=1 IP=      3 IndIP=     12 IndIPD=      2 C=  2.416856D-01  1.669029D-01                             NZ=T
 IExCor=  402 DFT=T Ex+Corr=B3LYP ExCW=0 ScaHFX=  0.200000
 ScaDFX=  0.800000  0.720000  1.000000  0.810000 ScalE2=  1.000000  1.000000
 IRadAn=      5 IRanWt=     -1 IRanGd=            0 ICorTp=0 IEmpDi=  4
 NAtoms=    2 NActive=    2 NUniq=    1 SFac= 4.00D+00 NAtFMM=   60 NAOKFM=F Big=F
 Integral buffers will be    131072 words long.
 Raffenetti 2 integral format.
 Two-electron integral symmetry is turned on.
 NPDir=0 NMtPBC=     1 NCelOv=     1 NCel=       1 NClECP=     1 NCelD=      1
         NCelK=      1 NCelE2=     1 NClLst=     1 CellRange=     0.0.
 One-electron integrals computed using PRISM.
 Entering OneElI...
 Calculate overlap and kinetic energy integrals
    NBasis =  10  MinDer = 0  MaxDer = 0
 Requested accuracy = 0.1000D-12
 Symmetry will be used
 PrmmSu-InSpLW:  IPartL=    0 NPrtUS=    1 NPrtUL=    1 DoSpLW=F IThBeg=    0 IThEnd=    0 NThAct=    1.
 PrSmSu:  IncTry=   512 NBBP=             10 NTPThr=   100 NPartT=    1 Incr=           1 LDynOK=F GPUOK=F.
 PrsmSu:  NPrtUS=   1 ThrOK=F IAlg=2 LenDen=           0 ISkipM=0 DoSpLW=F IThBeg=    0 IThEnd=    0.
 Prism:   IPart=     0 DynPar=F LinDyn=F Incr=           1.
 PRISM was handed   104854692 working-precision words and    10 shell-pairs
 IPart=  0 NShTot=           6 NBatch=           4 AvBLen=         1.5
 PrSmSu:  NxtVal=              2.
 *** Overlap *** 
                1             2             3             4             5 
      1  0.100000D+01
      2  0.236704D+00  0.100000D+01
      3  0.000000D+00  0.000000D+00  0.100000D+01
      4  0.000000D+00  0.000000D+00  0.000000D+00  0.100000D+01
      5  0.000000D+00  0.000000D+00  0.000000D+00  0.000000D+00  0.100000D+01
      6  0.000000D+00  0.222396D-01  0.000000D+00  0.000000D+00 -0.376360D-01
      7  0.222396D-01  0.276700D+00  0.000000D+00  0.000000D+00 -0.317826D+00
      8  0.000000D+00  0.000000D+00  0.149257D+00  0.000000D+00  0.000000D+00
      9  0.000000D+00  0.000000D+00  0.000000D+00  0.149257D+00  0.000000D+00
     10  0.376360D-01  0.317826D+00  0.000000D+00  0.000000D+00 -0.305811D+00
                6             7             8             9            10 
      6  0.100000D+01
      7  0.236704D+00  0.100000D+01
      8  0.000000D+00  0.000000D+00  0.100000D+01
      9  0.000000D+00  0.000000D+00  0.000000D+00  0.100000D+01
     10  0.000000D+00  0.000000D+00  0.000000D+00  0.000000D+00  0.100000D+01
 *** Kinetic Energy *** 
                1             2             3             4             5 
      1  0.290032D+02
      2 -0.168011D+00  0.808128D+00
      3  0.000000D+00  0.000000D+00  0.252873D+01
      4  0.000000D+00  0.000000D+00  0.000000D+00  0.252873D+01
      5  0.000000D+00  0.000000D+00  0.000000D+00  0.000000D+00  0.252873D+01
      6  0.000000D+00 -0.126570D-01  0.000000D+00  0.000000D+00  0.160778D-01
      7 -0.126570D-01  0.239819D-01  0.000000D+00  0.000000D+00 -0.148920D+00
      8  0.000000D+00  0.000000D+00  0.594131D-01  0.000000D+00  0.000000D+00
      9  0.000000D+00  0.000000D+00  0.000000D+00  0.594131D-01  0.000000D+00
     10 -0.160778D-01  0.148920D+00  0.000000D+00  0.000000D+00 -0.341924D+00
                6             7             8             9            10 
      6  0.290032D+02
      7 -0.168011D+00  0.808128D+00
      8  0.000000D+00  0.000000D+00  0.252873D+01
      9  0.000000D+00  0.000000D+00  0.000000D+00  0.252873D+01
     10  0.000000D+00  0.000000D+00  0.000000D+00  0.000000D+00  0.252873D+01
 Entering OneElI...
 Calculate potential energy integrals
    NBasis =  10  MinDer = 0  MaxDer = 0
 Requested accuracy = 0.1000D-12
 Symmetry will be used
 PrmmSu-InSpLW:  IPartL=    0 NPrtUS=    1 NPrtUL=    1 DoSpLW=F IThBeg=    0 IThEnd=    0 NThAct=    1.
 PrSmSu:  IncTry=   512 NBBP=             20 NTPThr=   100 NPartT=    1 Incr=           1 LDynOK=F GPUOK=F.
 PrsmSu:  NPrtUS=   1 ThrOK=F IAlg=2 LenDen=           0 ISkipM=0 DoSpLW=F IThBeg=    0 IThEnd=    0.
 Prism:   IPart=     0 DynPar=F LinDyn=F Incr=           1.
 PRISM was handed   104854661 working-precision words and    10 shell-pairs
 IPart=  0 NShTot=          12 NBatch=           6 AvBLen=         2.0
 PrSmSu:  NxtVal=              2.
 ***** Potential Energy ***** 
                1             2             3             4             5 
      1  0.641001D+02
      2  0.800719D+01  0.125256D+02
      3  0.000000D+00  0.000000D+00  0.122657D+02
      4  0.000000D+00  0.000000D+00  0.000000D+00  0.122657D+02
      5 -0.769596D-01 -0.955806D+00  0.000000D+00  0.000000D+00  0.128213D+02
      6  0.000000D+00  0.766297D+00  0.000000D+00  0.000000D+00 -0.130083D+01
      7  0.766297D+00  0.341120D+01  0.000000D+00  0.000000D+00 -0.401556D+01
      8  0.000000D+00  0.000000D+00  0.155057D+01  0.000000D+00  0.000000D+00
      9  0.000000D+00  0.000000D+00  0.000000D+00  0.155057D+01  0.000000D+00
     10  0.130083D+01  0.401556D+01  0.000000D+00  0.000000D+00 -0.400884D+01
                6             7             8             9            10 
      6  0.641001D+02
      7  0.800719D+01  0.125256D+02
      8  0.000000D+00  0.000000D+00  0.122657D+02
      9  0.000000D+00  0.000000D+00  0.000000D+00  0.122657D+02
     10  0.769596D-01  0.955806D+00  0.000000D+00  0.000000D+00  0.128213D+02
 ****** Core Hamiltonian ****** 
                1             2             3             4             5 
      1 -0.350969D+02
      2 -0.817520D+01 -0.117175D+02
      3  0.000000D+00  0.000000D+00 -0.973699D+01
      4  0.000000D+00  0.000000D+00  0.000000D+00 -0.973699D+01
      5  0.769596D-01  0.955806D+00  0.000000D+00  0.000000D+00 -0.102926D+02
      6  0.000000D+00 -0.778954D+00  0.000000D+00  0.000000D+00  0.131691D+01
      7 -0.778954D+00 -0.338721D+01  0.000000D+00  0.000000D+00  0.386664D+01
      8  0.000000D+00  0.000000D+00 -0.149116D+01  0.000000D+00  0.000000D+00
      9  0.000000D+00  0.000000D+00  0.000000D+00 -0.149116D+01  0.000000D+00
     10 -0.131691D+01 -0.386664D+01  0.000000D+00  0.000000D+00  0.366691D+01
                6             7             8             9            10 
      6 -0.350969D+02
      7 -0.817520D+01 -0.117175D+02
      8  0.000000D+00  0.000000D+00 -0.973699D+01
      9  0.000000D+00  0.000000D+00  0.000000D+00 -0.973699D+01
     10 -0.769596D-01 -0.955806D+00  0.000000D+00  0.000000D+00 -0.102926D+02
 SVDSVc IOpt=   1 NormSV=T IR=1
 SVDSVc V= 1.68D+00 1.11D+00 7.99D-01
 SVDSVc IOpt=   1 NormSV=T IR=3
 SVDSVc V= 8.51D-01
 SVDSVc IOpt=   1 NormSV=T IR=4
 SVDSVc V= 8.51D-01
 SVDSVc IOpt=   1 NormSV=T IR=6
 SVDSVc V= 1.20D+00 8.48D-01 3.66D-01
 SVDSVc IOpt=   1 NormSV=T IR=7
 SVDSVc V= 1.15D+00
 SVDSVc IOpt=   1 NormSV=T IR=8
 SVDSVc V= 1.15D+00
 TstOVc:  Largest diagonal error= 1.33D-15 IB=3 I=    4.
 TstOVc:  Largest same sym error= 1.94D-16 IB=6 I=    8 J=    7.
 TstOVc:  Largest diff sym error= 5.55D-17 IB=6 JB=1 I=    8 J=    1.
 Orthogonalized basis functions: 
                 1             2             3             4             5 
      1   0.167263D+00  0.416822D+00  0.571248D+00  0.000000D+00  0.000000D+00
      2   0.385938D+00  0.241888D+00 -0.482017D+00  0.000000D+00  0.000000D+00
      3   0.000000D+00  0.000000D+00  0.000000D+00  0.766630D+00  0.000000D+00
      4   0.000000D+00  0.000000D+00  0.000000D+00  0.000000D+00  0.766630D+00
      5  -0.348460D+00  0.467982D+00 -0.259657D+00  0.000000D+00  0.000000D+00
      6   0.167263D+00  0.416822D+00  0.571248D+00  0.000000D+00  0.000000D+00
      7   0.385938D+00  0.241888D+00 -0.482017D+00  0.000000D+00  0.000000D+00
      8   0.000000D+00  0.000000D+00  0.000000D+00 -0.766630D+00  0.000000D+00
      9   0.000000D+00  0.000000D+00  0.000000D+00  0.000000D+00 -0.766630D+00
     10   0.348460D+00 -0.467982D+00  0.259657D+00  0.000000D+00  0.000000D+00
                 6             7             8             9            10 
      1   0.447704D+00  0.530026D+00 -0.236438D+00  0.000000D+00  0.000000D+00
      2   0.377802D+00 -0.291917D+00  0.836676D+00  0.000000D+00  0.000000D+00
      3   0.000000D+00  0.000000D+00  0.000000D+00  0.000000D+00  0.659594D+00
      4   0.000000D+00  0.000000D+00  0.000000D+00  0.659594D+00  0.000000D+00
      5   0.268804D+00 -0.472493D+00 -0.782146D+00  0.000000D+00  0.000000D+00
      6  -0.447704D+00 -0.530026D+00  0.236438D+00  0.000000D+00  0.000000D+00
      7  -0.377802D+00  0.291917D+00 -0.836676D+00  0.000000D+00  0.000000D+00
      8   0.000000D+00  0.000000D+00  0.000000D+00  0.000000D+00  0.659594D+00
      9   0.000000D+00  0.000000D+00  0.000000D+00  0.659594D+00  0.000000D+00
     10   0.268804D+00 -0.472493D+00 -0.782146D+00  0.000000D+00  0.000000D+00
 NBasis=    10 RedAO= T EigKep=  3.66D-01  NBF=     3     0     1     1     0     3     1     1
 NBsUse=    10 1.00D-06 EigRej= -1.00D+00 NBFU=     3     0     1     1     0     3     1     1
 Precomputing XC quadrature grid using
 IXCGrd= 4 IRadAn=           5 IRanWt=          -1 IRanGd=           0 AccXCQ= 0.00D+00.
 SetAtRh:  ITypeU=  23 NETotI=       0 ICharg=*** NETot=       0.
 StAtR1:  I=    1 I1=    1 IA=  8 C=   8.0 OKShel=TTT
                                                  SSP
                                                  224
 StAtR1:  I=    2 I1=    2 IA=  8 C=   8.0 OKShel=TTT
                                                  SSP
                                                  224
          I=    1 IA=  8 I1=    1 NAtG= 0 NE=   8.000 C=   0.000 Err=-8.00D+00
          I=    2 IA=  8 I1=    2 NAtG= 0 NE=   8.000 C=   0.000 Err=-8.00D+00
 Generated NRdTot=       0 NPtTot=           0 NUsed=           0 NTot=          32
 NSgBfM=    10    10    10    10    10 MxSgAt=     2 MxSgA2=     2.
 IGWInf( 1) =          32 (NGWInf)
 IGWInf( 2) =           2 (NAtomA)
 IGWInf( 3) =           5 (IRadAn)
 IGWInf( 4) =          -1 (IRanWt)
 IGWInf( 5) =           0 (IRanGd)
 IGWInf( 6) =           2 (IRType)
 IGWInf( 7) =           0 (NRdTot)
 IGWInf( 8) =           0 (NGWTot)
 IGWInf( 9) =       42604 (LGWBtD)
 IGWInf(10) =           0 (NAtBtD)
 IGWInf(11) =           0 (NIRBtD)
 IGWInf(12) =           0 (NRRBtD)
 IGWInf(13) =           1 (NClRep)
 IGWInf(14) =           0 (ICntr3)
 IGWInf(15) =           0 (IPFlag)
 IGWInf(16) =           0 (IGet)  
 IGWInf(17) =           0         
 IGWInf(18) =          10         
 IGWInf(19) =          10         
 IGWInf(20) =          10         
 IGWInf(21) =          10         
 IGWInf(22) =          10         
 IGWInf(23) =           2         
 IGWInf(24) =           2         
 IGWInf(25) =           0         
 IGWInf(26) =           0         
 IGWInf(27) =           0         
 IGWInf(28) =           0         
 IGWInf(29) =           0         
 IGWInf(30) =           0         
 IGWInf(31) =           0         
 IGWInf(32) =           0         
 IAtBtD: 
              1            2
 DipPsm:  J= 1 NJ= 4 MaxL=1 MMat= 4 MaxMat= 4.
 DipInt: DoE/N= T F RetVal/Mat= F T Init=T NMatP=  4 IDeriv=0 Min/MaxMlt=  0  1
 Entering OneElI...
 Multipole integrals L=0 to 1 MinM= 0 MaxM= 3.
 Requested accuracy = 0.1000D-12
 PrmmSu-InSpLW:  IPartL=    0 NPrtUS=    1 NPrtUL=    1 DoSpLW=F IThBeg=    0 IThEnd=    0 NThAct=    1.
 PrSmSu:  IncTry=   512 NBBP=             10 NTPThr=   100 NPartT=    1 Incr=           1 LDynOK=F GPUOK=F.
 PrsmSu:  NPrtUS=   1 ThrOK=F IAlg=2 LenDen=           0 ISkipM=0 DoSpLW=F IThBeg=    0 IThEnd=    0.
 Prism:   IPart=     0 DynPar=F LinDyn=F Incr=           1.
 PRISM was handed   104854824 working-precision words and    10 shell-pairs
 IPart=  0 NShTot=          10 NBatch=           4 AvBLen=         2.5
 PrSmSu:  NxtVal=              2.
 Multipole matrices IBuc=  518 IX=    1 IJ=           1:
                1             2             3             4             5 
      1  0.000000D+00
      2  0.000000D+00  0.000000D+00
      3  0.507919D-01  0.641173D+00  0.000000D+00
      4  0.000000D+00  0.000000D+00  0.000000D+00  0.000000D+00
      5  0.000000D+00  0.000000D+00  0.000000D+00  0.000000D+00  0.000000D+00
      6  0.000000D+00  0.000000D+00  0.965353D-03  0.000000D+00  0.000000D+00
      7  0.000000D+00  0.000000D+00  0.151979D+00  0.000000D+00  0.000000D+00
      8  0.965353D-03  0.151979D+00  0.000000D+00  0.000000D+00 -0.171481D+00
      9  0.000000D+00  0.000000D+00  0.000000D+00  0.000000D+00  0.000000D+00
     10  0.000000D+00  0.000000D+00  0.171481D+00  0.000000D+00  0.000000D+00
                6             7             8             9            10 
      6  0.000000D+00
      7  0.000000D+00  0.000000D+00
      8  0.507919D-01  0.641173D+00  0.000000D+00
      9  0.000000D+00  0.000000D+00  0.000000D+00  0.000000D+00
     10  0.000000D+00  0.000000D+00  0.000000D+00  0.000000D+00  0.000000D+00
 Multipole matrices IBuc=  518 IX=    2 IJ=           1:
                1             2             3             4             5 
      1  0.000000D+00
      2  0.000000D+00  0.000000D+00
      3  0.000000D+00  0.000000D+00  0.000000D+00
      4  0.507919D-01  0.641173D+00  0.000000D+00  0.000000D+00
      5  0.000000D+00  0.000000D+00  0.000000D+00  0.000000D+00  0.000000D+00
      6  0.000000D+00  0.000000D+00  0.000000D+00  0.965353D-03  0.000000D+00
      7  0.000000D+00  0.000000D+00  0.000000D+00  0.151979D+00  0.000000D+00
      8  0.000000D+00  0.000000D+00  0.000000D+00  0.000000D+00  0.000000D+00
      9  0.965353D-03  0.151979D+00  0.000000D+00  0.000000D+00 -0.171481D+00
     10  0.000000D+00  0.000000D+00  0.000000D+00  0.171481D+00  0.000000D+00
                6             7             8             9            10 
      6  0.000000D+00
      7  0.000000D+00  0.000000D+00
      8  0.000000D+00  0.000000D+00  0.000000D+00
      9  0.507919D-01  0.641173D+00  0.000000D+00  0.000000D+00
     10  0.000000D+00  0.000000D+00  0.000000D+00  0.000000D+00  0.000000D+00
 Multipole matrices IBuc=  518 IX=    3 IJ=           1:
                1             2             3             4             5 
      1  0.114890D+01
      2  0.271948D+00  0.114890D+01
      3  0.000000D+00  0.000000D+00  0.114890D+01
      4  0.000000D+00  0.000000D+00  0.000000D+00  0.114890D+01
      5  0.507919D-01  0.641173D+00  0.000000D+00  0.000000D+00  0.114890D+01
      6  0.000000D+00 -0.232305D-01  0.000000D+00  0.000000D+00  0.396007D-01
      7  0.232305D-01  0.000000D+00  0.000000D+00  0.000000D+00  0.121718D+00
      8  0.000000D+00  0.000000D+00  0.000000D+00  0.000000D+00  0.000000D+00
      9  0.000000D+00  0.000000D+00  0.000000D+00  0.000000D+00  0.000000D+00
     10  0.396007D-01  0.121718D+00  0.000000D+00  0.000000D+00  0.000000D+00
                6             7             8             9            10 
      6 -0.114890D+01
      7 -0.271948D+00 -0.114890D+01
      8  0.000000D+00  0.000000D+00 -0.114890D+01
      9  0.000000D+00  0.000000D+00  0.000000D+00 -0.114890D+01
     10  0.507919D-01  0.641173D+00  0.000000D+00  0.000000D+00 -0.114890D+01
 Fermi contact integrals: 
                 1             2 
      1   0.964586D+01  0.000000D+00
      2   0.322507D+00  0.331012D-01
      3   0.000000D+00  0.000000D+00
      4   0.000000D+00  0.000000D+00
      5   0.000000D+00 -0.565040D-01
      6   0.000000D+00  0.964586D+01
      7   0.331012D-01  0.322507D+00
      8   0.000000D+00  0.000000D+00
      9   0.000000D+00  0.000000D+00
     10   0.565040D-01  0.000000D+00
 ExpMin= 3.80D-01 ExpMax= 1.31D+02 ExpMxC= 1.31D+02 IAcc=3 IRadAn=         5 AccDes= 0.00D+00
 Harris functional with IExCor=  402 and IRadAn=       5 diagonalized for initial guess.
 HarFok:  IExCor=  402 AccDes= 0.00D+00 IRadAn=         5 IDoV= 1 UseB2=F ITyADJ=14
 ICtDFT=  3500011 ScaDFX=  1.000000  1.000000  1.000000  1.000000
 FoFCou: FMM=F IPFlag=           0 FMFlag=      100000 FMFlg1=           0
         NFxFlg=           0 DoJE=T BraDBF=F KetDBF=T FulRan=T
         wScrn=  0.000000 ICntrl=       500 IOpCl=  0 I1Cent=   200000004 NGrid=           0
         NMat0=    1 NMatS0=      1 NMatT0=    0 NMatD0=    1 NMtDS0=    0 NMtDT0=    0
 Petite list used in FoFCou.
 Initial guess orbital symmetries:
       Occupied  (SGU) (SGG) (SGG) (SGU) (SGG) (PIU) (PIU) (PIG)
       Virtual   (PIG) (SGU)
 Keep R1 ints in memory in symmetry-blocked form, NReq=864987.
 Requested convergence on RMS density matrix=1.00D-08 within 128 cycles.
 Requested convergence on MAX density matrix=1.00D-06.
 Requested convergence on             energy=1.00D-06.
 No special actions if energy rises.
 Integral accuracy reduced to 1.0D-05 until final iterations.
 Initial convergence to 1.0D-05 achieved.  Increase integral accuracy.
 SCF Done:  E(RB3LYP) =  -148.204136449     A.U. after    7 cycles
            NFock=  7  Conv=0.10D-09     -V/T= 2.0148

 **********************************************************************

            Population analysis using the SCF Density.

 **********************************************************************

 Orbital symmetries:
       Occupied  (SGU) (SGG) (SGG) (SGU) (PIU) (SGG) (PIU) (PIG)
       Virtual   (PIG) (SGU)
 Unable to determine electronic state:  partially filled degenerate orbitals.
 Alpha  occ. eigenvalues --  -19.00945 -19.00784  -1.18490  -0.68842  -0.38178
 Alpha  occ. eigenvalues --   -0.38153  -0.36948  -0.09680
 Alpha virt. eigenvalues --   -0.02975   0.41377
     Molecular Orbital Coefficients:
                           1         2         3         4         5
                       (SGU)--O  (SGG)--O  (SGG)--O  (SGU)--O  (PIU)--O
     Eigenvalues --   -19.00945 -19.00784  -1.18490  -0.68842  -0.38178
   1 1   O  1S          0.70235   0.70327  -0.16698  -0.18922   0.00000
   2        2S          0.02242   0.01421   0.55914   0.78778   0.00000
   3        2PX         0.00000   0.00000   0.00000   0.00000   0.65959
   4        2PY         0.00000   0.00000   0.00000   0.00000   0.00000
   5        2PZ        -0.00653   0.00031  -0.20061   0.13638   0.00000
   6 2   O  1S         -0.70235   0.70327  -0.16698   0.18922   0.00000
   7        2S         -0.02242   0.01421   0.55914  -0.78778   0.00000
   8        2PX         0.00000   0.00000   0.00000   0.00000   0.65959
   9        2PY         0.00000   0.00000   0.00000   0.00000   0.00000
  10        2PZ        -0.00653  -0.00031   0.20061   0.13638   0.00000
                           6         7         8         9        10
                       (SGG)--O  (PIU)--O  (PIG)--O  (PIG)--V  (SGU)--V
     Eigenvalues --    -0.38153  -0.36948  -0.09680  -0.02975   0.41377
   1 1   O  1S         -0.07466   0.00000   0.00000   0.00000   0.09041
   2        2S          0.35632   0.00000   0.00000   0.00000  -0.55397
   3        2PX         0.00000   0.00000   0.00000   0.76663   0.00000
   4        2PY         0.00000   0.65959   0.76663   0.00000   0.00000
   5        2PZ         0.60631   0.00000   0.00000   0.00000   0.94266
   6 2   O  1S         -0.07466   0.00000   0.00000   0.00000  -0.09041
   7        2S          0.35632   0.00000   0.00000   0.00000   0.55397
   8        2PX         0.00000   0.00000   0.00000  -0.76663   0.00000
   9        2PY         0.00000   0.65959  -0.76663   0.00000   0.00000
  10        2PZ        -0.60631   0.00000   0.00000   0.00000   0.94266
     Density Matrix:
                           1         2         3         4         5
   1 1   O  1S          2.11427
   2        2S         -0.48658   2.12179
   3        2PX        -0.00000   0.00000   0.87013
   4        2PY        -0.00000   0.00000   0.00000   2.04557
   5        2PZ        -0.08387   0.42232  -0.00000  -0.00000   0.85299
   6 2   O  1S         -0.00210   0.04668   0.00000   0.00000   0.03768
   7        2S          0.04668  -0.36259  -0.00000  -0.00000  -0.00683
   8        2PX        -0.00000   0.00000   0.87013   0.00000  -0.00000
   9        2PY        -0.00000   0.00000   0.00000  -0.30532  -0.00000
  10        2PZ        -0.03768   0.00683  -0.00000  -0.00000  -0.77843
                           6         7         8         9        10
   6 2   O  1S          2.11427
   7        2S         -0.48658   2.12179
   8        2PX         0.00000  -0.00000   0.87013
   9        2PY         0.00000  -0.00000   0.00000   2.04557
  10        2PZ         0.08387  -0.42232  -0.00000  -0.00000   0.85299
    Full Mulliken population analysis:
                           1         2         3         4         5
   1 1   O  1S          2.11427
   2        2S         -0.11518   2.12179
   3        2PX         0.00000   0.00000   0.87013
   4        2PY         0.00000   0.00000   0.00000   2.04557
   5        2PZ         0.00000   0.00000   0.00000  -0.00000   0.85299
   6 2   O  1S         -0.00000   0.00104  -0.00000  -0.00000  -0.00142
   7        2S          0.00104  -0.10033   0.00000   0.00000   0.00217
   8        2PX         0.00000   0.00000   0.12987   0.00000   0.00000
   9        2PY        -0.00000   0.00000   0.00000  -0.04557   0.00000
  10        2PZ        -0.00142   0.00217   0.00000   0.00000   0.23805
                           6         7         8         9        10
   6 2   O  1S          2.11427
   7        2S         -0.11518   2.12179
   8        2PX         0.00000   0.00000   0.87013
   9        2PY         0.00000   0.00000   0.00000   2.04557
  10        2PZ         0.00000   0.00000   0.00000   0.00000   0.85299
     Gross orbital populations:
                           1
   1 1   O  1S          1.99872
   2        2S          1.90949
   3        2PX         1.00000
   4        2PY         2.00000
   5        2PZ         1.09179
   6 2   O  1S          1.99872
   7        2S          1.90949
   8        2PX         1.00000
   9        2PY         2.00000
  10        2PZ         1.09179
          Condensed to atoms (all electrons):
               1          2
     1  O    7.774399   0.225601
     2  O    0.225601   7.774399
 Mulliken charges:
               1
     1  O    0.000000
     2  O    0.000000
 Sum of Mulliken charges =   0.00000
 Mulliken charges with hydrogens summed into heavy atoms:
               1
     1  O    0.000000
     2  O    0.000000
 Electronic spatial extent (au):  <R**2>=             40.8312
 Charge=              0.0000 electrons
 Dipole moment (field-independent basis, Debye):
    X=              0.0000    Y=              0.0000    Z=             -0.0000  Tot=              0.0000
 Quadrupole moment (field-independent basis, Debye-Ang):
   XX=             -7.7447   YY=             -9.2177   ZZ=             -9.5506
   XY=              0.0000   XZ=              0.0000   YZ=              0.0000
 Traceless Quadrupole moment (field-independent basis, Debye-Ang):
   XX=              1.0930   YY=             -0.3800   ZZ=             -0.7129
   XY=              0.0000   XZ=              0.0000   YZ=              0.0000
 Octapole moment (field-independent basis, Debye-Ang**2):
  XXX=             -0.0000  YYY=              0.0000  ZZZ=             -0.0000  XYY=             -0.0000
  XXY=             -0.0000  XXZ=             -0.0000  XZZ=             -0.0000  YZZ=              0.0000
  YYZ=              0.0000  XYZ=              0.0000
 Hexadecapole moment (field-independent basis, Debye-Ang**3):
 XXXX=             -3.5114 YYYY=             -4.4211 ZZZZ=            -23.3780 XXXY=              0.0000
 XXXZ=              0.0000 YYYX=              0.0000 YYYZ=              0.0000 ZZZX=              0.0000
 ZZZY=              0.0000 XXYY=             -1.3221 XXZZ=             -4.1618 YYZZ=             -4.9932
 XXYZ=              0.0000 YYXZ=              0.0000 ZZXY=             -0.0000
 N-N= 2.785280646979D+01 E-N=-4.060049921833D+02  KE= 1.460439641365D+02
 Symmetry AG   KE= 6.744045837799D+01
 Symmetry B1G  KE= 0.000000000000D+00
 Symmetry B2G  KE= 9.825382051087D-34
 Symmetry B3G  KE= 5.805086075980D+00
 Symmetry AU   KE= 0.000000000000D+00
 Symmetry B1U  KE= 6.379035864967D+01
 Symmetry B2U  KE= 4.504030516417D+00
 Symmetry B3U  KE= 4.504030516417D+00
 Orbital energies and kinetic energies (alpha):
                                 1                 2
   1         (SGU)--O        -19.009453         28.605435
   2         (SGG)--O        -19.007837         28.682215
   3         (SGG)--O         -1.184898          2.505214
   4         (SGU)--O         -0.688417          3.289744
   5         (PIU)--O         -0.381785          2.252015
   6         (SGG)--O         -0.381530          2.532801
   7         (PIU)--O         -0.369480          2.252015
   8         (PIG)--O         -0.096796          2.902543
   9         (PIG)--V         -0.029748          2.902543
  10         (SGU)--V          0.413772          4.556493
 Total kinetic energy from orbitals= 1.460439641365D+02

 Test job not archived.
 1\1\GINC-DESKTOP-6CSR5D9\SP\RB3LYP\STO-3G\O2\FLY\03-Oct-2022\0\\# b3ly
 p/sto-3g pop=full gfinput iop(3/33=1)\\Title Card Required\\0,1\O,0,0.
 ,0.,0.60797\O,0,0.,0.,-0.60797\\Version=ES64L-G16RevC.02\HF=-148.20413
 64\RMSD=1.014e-10\Dipole=0.,0.,0.\Quadrupole=0.8125945,-0.2825428,-0.5
 300517,0.,0.,0.\PG=D*H [C*(O1.O1)]\\@


 YOU CAN LEAD A BOY TO COLLEGE....
 BUT YOU CANNOT MAKE HIM THINK....
           ELBERT HUBBARD
 Job cpu time:       0 days  0 hours  0 minutes  0.6 seconds.
 Elapsed time:       0 days  0 hours  0 minutes  1.4 seconds.
 File lengths (MBytes):  RWF=      6 Int=      0 D2E=      0 Chk=      1 Scr=      1
 Normal termination of Gaussian 16 at Mon Oct  3 22:00:39 2022.
