 This job is assigned to node17
 Entering Gaussian System, Link 0=g09
 Initial command:
 /opt/g09/g09/l1.exe "/s1/shixf21/Gau-53897.inp" -scrdir="/s1/shixf21/"
 Entering Link 1 = /opt/g09/g09/l1.exe PID=     53898.
  
 Copyright (c) 1988,1990,1992,1993,1995,1998,2003,2009,2013,
            Gaussian, Inc.  All Rights Reserved.
  
 This is part of the Gaussian(R) 09 program.  It is based on
 the Gaussian(R) 03 system (copyright 2003, Gaussian, Inc.),
 the Gaussian(R) 98 system (copyright 1998, Gaussian, Inc.),
 the Gaussian(R) 94 system (copyright 1995, Gaussian, Inc.),
 the Gaussian 92(TM) system (copyright 1992, Gaussian, Inc.),
 the Gaussian 90(TM) system (copyright 1990, Gaussian, Inc.),
 the Gaussian 88(TM) system (copyright 1988, Gaussian, Inc.),
 the Gaussian 86(TM) system (copyright 1986, Carnegie Mellon
 University), and the Gaussian 82(TM) system (copyright 1983,
 Carnegie Mellon University). Gaussian is a federally registered
 trademark of Gaussian, Inc.
  
 This software contains proprietary and confidential information,
 including trade secrets, belonging to Gaussian, Inc.
  
 This software is provided under written license and may be
 used, copied, transmitted, or stored only in accord with that
 written license.
  
 The following legend is applicable only to US Government
 contracts under FAR:
  
                    RESTRICTED RIGHTS LEGEND
  
 Use, reproduction and disclosure by the US Government is
 subject to restrictions as set forth in subparagraphs (a)
 and (c) of the Commercial Computer Software - Restricted
 Rights clause in FAR 52.227-19.
  
 Gaussian, Inc.
 340 Quinnipiac St., Bldg. 40, Wallingford CT 06492
  
  
 ---------------------------------------------------------------
 Warning -- This program may not be used in any manner that
 competes with the business of Gaussian, Inc. or will provide
 assistance to any competitor of Gaussian, Inc.  The licensee
 of this program is prohibited from giving any competitor of
 Gaussian, Inc. access to this program.  By using this program,
 the user acknowledges that Gaussian, Inc. is engaged in the
 business of creating and licensing software in the field of
 computational chemistry and represents and warrants to the
 licensee that it is not a competitor of Gaussian, Inc. and that
 it will not use this program in any manner prohibited above.
 ---------------------------------------------------------------
  

 Cite this work as:
 Gaussian 09, Revision D.01,
 M. J. Frisch, G. W. Trucks, H. B. Schlegel, G. E. Scuseria, 
 M. A. Robb, J. R. Cheeseman, G. Scalmani, V. Barone, B. Mennucci, 
 G. A. Petersson, H. Nakatsuji, M. Caricato, X. Li, H. P. Hratchian, 
 A. F. Izmaylov, J. Bloino, G. Zheng, J. L. Sonnenberg, M. Hada, 
 M. Ehara, K. Toyota, R. Fukuda, J. Hasegawa, M. Ishida, T. Nakajima, 
 Y. Honda, O. Kitao, H. Nakai, T. Vreven, J. A. Montgomery, Jr., 
 J. E. Peralta, F. Ogliaro, M. Bearpark, J. J. Heyd, E. Brothers, 
 K. N. Kudin, V. N. Staroverov, T. Keith, R. Kobayashi, J. Normand, 
 K. Raghavachari, A. Rendell, J. C. Burant, S. S. Iyengar, J. Tomasi, 
 M. Cossi, N. Rega, J. M. Millam, M. Klene, J. E. Knox, J. B. Cross, 
 V. Bakken, C. Adamo, J. Jaramillo, R. Gomperts, R. E. Stratmann, 
 O. Yazyev, A. J. Austin, R. Cammi, C. Pomelli, J. W. Ochterski, 
 R. L. Martin, K. Morokuma, V. G. Zakrzewski, G. A. Voth, 
 P. Salvador, J. J. Dannenberg, S. Dapprich, A. D. Daniels, 
 O. Farkas, J. B. Foresman, J. V. Ortiz, J. Cioslowski, 
 and D. J. Fox, Gaussian, Inc., Wallingford CT, 2013.
 
 ******************************************
 Gaussian 09:  ES64L-G09RevD.01 24-Apr-2013
                 3-Dec-2022 
 ******************************************
 %nproc=24
 Will use up to   24 processors via shared memory.
 %mem=30gb
 %chk=C[CH2]3.chk
 --------------------------------------------------
 # opt ub3lyp/6-31g(d) pop=full gfinput iop(3/33=1)
 --------------------------------------------------
 1/14=-1,18=20,19=15,26=3,38=1/1,3;
 2/9=110,12=2,17=6,18=5,40=1/2;
 3/5=1,6=6,7=1,11=2,16=1,24=10,25=1,30=1,33=1,71=1,74=-5,116=2/1,2,3;
 4//1;
 5/5=2,38=5/2;
 6/7=3,28=1/1;
 7//1,2,3,16;
 1/14=-1,18=20,19=15,26=3/3(2);
 2/9=110/2;
 99//99;
 2/9=110/2;
 3/5=1,6=6,7=1,11=2,16=1,25=1,30=1,33=1,71=1,74=-5,116=2/1,2,3;
 4/5=5,16=3,69=1/1;
 5/5=2,38=5/2;
 7//1,2,3,16;
 1/14=-1,18=20,19=15,26=3/3(-5);
 2/9=110/2;
 6/7=3,19=2,28=1/1;
 99/9=1/99;
 -------------------
 Title Card Required
 -------------------
 Symbolic Z-matrix:
 Charge =  0 Multiplicity = 3
 C                     0.        0.       -0.00044 
 C                     0.        1.22571  -0.70738 
 H                     0.        1.24894  -1.79228 
 C                     0.       -1.22571  -0.70738 
 H                     0.       -1.24894  -1.79228 
 C                     0.        0.        1.41528 
 H                     0.       -2.17641  -0.1839 
 H                     0.        2.17641  -0.1839 
 H                     0.       -0.92923   1.97594 
 H                     0.        0.92923   1.97594 
 

 GradGradGradGradGradGradGradGradGradGradGradGradGradGradGradGradGradGrad
 Berny optimization.
 Initialization pass.
                           ----------------------------
                           !    Initial Parameters    !
                           ! (Angstroms and Degrees)  !
 --------------------------                            --------------------------
 ! Name  Definition              Value          Derivative Info.                !
 --------------------------------------------------------------------------------
 ! R1    R(1,2)                  1.415          estimate D2E/DX2                !
 ! R2    R(1,4)                  1.415          estimate D2E/DX2                !
 ! R3    R(1,6)                  1.4157         estimate D2E/DX2                !
 ! R4    R(2,3)                  1.0852         estimate D2E/DX2                !
 ! R5    R(2,8)                  1.0853         estimate D2E/DX2                !
 ! R6    R(4,5)                  1.0852         estimate D2E/DX2                !
 ! R7    R(4,7)                  1.0853         estimate D2E/DX2                !
 ! R8    R(6,9)                  1.0853         estimate D2E/DX2                !
 ! R9    R(6,10)                 1.0853         estimate D2E/DX2                !
 ! A1    A(2,1,4)              120.0509         estimate D2E/DX2                !
 ! A2    A(2,1,6)              119.9746         estimate D2E/DX2                !
 ! A3    A(4,1,6)              119.9746         estimate D2E/DX2                !
 ! A4    A(1,2,3)              121.2013         estimate D2E/DX2                !
 ! A5    A(1,2,8)              121.1872         estimate D2E/DX2                !
 ! A6    A(3,2,8)              117.6114         estimate D2E/DX2                !
 ! A7    A(1,4,5)              121.2013         estimate D2E/DX2                !
 ! A8    A(1,4,7)              121.1872         estimate D2E/DX2                !
 ! A9    A(5,4,7)              117.6114         estimate D2E/DX2                !
 ! A10   A(1,6,9)              121.1049         estimate D2E/DX2                !
 ! A11   A(1,6,10)             121.1049         estimate D2E/DX2                !
 ! A12   A(9,6,10)             117.7902         estimate D2E/DX2                !
 ! D1    D(4,1,2,3)              0.0            estimate D2E/DX2                !
 ! D2    D(4,1,2,8)            180.0            estimate D2E/DX2                !
 ! D3    D(6,1,2,3)            180.0            estimate D2E/DX2                !
 ! D4    D(6,1,2,8)              0.0            estimate D2E/DX2                !
 ! D5    D(2,1,4,5)              0.0            estimate D2E/DX2                !
 ! D6    D(2,1,4,7)            180.0            estimate D2E/DX2                !
 ! D7    D(6,1,4,5)            180.0            estimate D2E/DX2                !
 ! D8    D(6,1,4,7)              0.0            estimate D2E/DX2                !
 ! D9    D(2,1,6,9)            180.0            estimate D2E/DX2                !
 ! D10   D(2,1,6,10)             0.0            estimate D2E/DX2                !
 ! D11   D(4,1,6,9)              0.0            estimate D2E/DX2                !
 ! D12   D(4,1,6,10)           180.0            estimate D2E/DX2                !
 --------------------------------------------------------------------------------
 Trust Radius=3.00D-01 FncErr=1.00D-07 GrdErr=1.00D-06
 Number of steps in this run=     43 maximum allowed number of steps=    100.
 GradGradGradGradGradGradGradGradGradGradGradGradGradGradGradGradGradGrad

                          Input orientation:                          
 ---------------------------------------------------------------------
 Center     Atomic      Atomic             Coordinates (Angstroms)
 Number     Number       Type             X           Y           Z
 ---------------------------------------------------------------------
      1          6           0        0.000000    0.000000   -0.000443
      2          6           0        0.000000    1.225705   -0.707379
      3          1           0        0.000000    1.248937   -1.792281
      4          6           0        0.000000   -1.225705   -0.707379
      5          1           0        0.000000   -1.248937   -1.792281
      6          6           0        0.000000    0.000000    1.415281
      7          1           0        0.000000   -2.176412   -0.183898
      8          1           0        0.000000    2.176412   -0.183898
      9          1           0        0.000000   -0.929228    1.975936
     10          1           0        0.000000    0.929228    1.975936
 ---------------------------------------------------------------------
                    Distance matrix (angstroms):
                    1          2          3          4          5
     1  C    0.000000
     2  C    1.414960   0.000000
     3  H    2.184154   1.085151   0.000000
     4  C    1.414960   2.451410   2.702011   0.000000
     5  H    2.184154   2.702011   2.497874   1.085151   0.000000
     6  C    1.415724   2.451130   3.442136   2.451130   3.442136
     7  H    2.184130   3.442155   3.784166   1.085300   1.856638
     8  H    2.184130   1.085300   1.856638   3.442155   3.784166
     9  H    2.183927   3.441499   4.352455   2.699644   3.781755
    10  H    2.183927   2.699644   3.781755   3.441499   4.352455
                    6          7          8          9         10
     6  C    0.000000
     7  H    2.700767   0.000000
     8  H    2.700767   4.352824   0.000000
     9  H    1.085264   2.494063   3.782841   0.000000
    10  H    1.085264   3.782841   2.494063   1.858456   0.000000
 Stoichiometry    C4H6(3)
 Framework group  C2V[C2(CC),SGV(C2H6)]
 Deg. of freedom     9
 Full point group                 C2V     NOp   4
 Largest Abelian subgroup         C2V     NOp   4
 Largest concise Abelian subgroup C2      NOp   2
                         Standard orientation:                         
 ---------------------------------------------------------------------
 Center     Atomic      Atomic             Coordinates (Angstroms)
 Number     Number       Type             X           Y           Z
 ---------------------------------------------------------------------
      1          6           0        0.000000    0.000000   -0.000443
      2          6           0        0.000000    1.225705   -0.707379
      3          1           0        0.000000    1.248937   -1.792281
      4          6           0        0.000000   -1.225705   -0.707379
      5          1           0        0.000000   -1.248937   -1.792281
      6          6           0        0.000000    0.000000    1.415281
      7          1           0        0.000000   -2.176412   -0.183898
      8          1           0        0.000000    2.176412   -0.183898
      9          1           0        0.000000   -0.929228    1.975936
     10          1           0        0.000000    0.929228    1.975936
 ---------------------------------------------------------------------
 Rotational constants (GHZ):     10.0157919     10.0097495      5.0063849
 Standard basis: 6-31G(d) (6D, 7F)
                         Coordinates in L301:                         
 ---------------------------------------------------------------------
 Center     Atomic      Atomic             Coordinates (Angstroms)
 Number     Number       Type             X           Y           Z
 ---------------------------------------------------------------------
      1          6           0        0.000000    0.000000   -0.000443
      2          6           0        0.000000    1.225705   -0.707379
      3          1           0        0.000000    1.248937   -1.792281
      4          6           0        0.000000   -1.225705   -0.707379
      5          1           0        0.000000   -1.248937   -1.792281
      6          6           0        0.000000    0.000000    1.415281
      7          1           0        0.000000   -2.176412   -0.183898
      8          1           0        0.000000    2.176412   -0.183898
      9          1           0        0.000000   -0.929228    1.975936
     10          1           0        0.000000    0.929228    1.975936
 ---------------------------------------------------------------------
 FixB: optimizing general contractions.
 Ernie: Thresh=  0.10000D-02 Tol=  0.10000D-05 Strict=F.
 IA=     1 ShT= 0 ShC= 0 NL=   1 NS=   0.
 IA=     1 L=0 SC=0 ISt=    0 NBk=    0 NP=    0 IndPr=    0.
 IA=     1 ShT= 1 ShC= 0 NL=   2 NS=   1.
 IA=     1 L=1 SC=0 ISt=    0 NBk=    0 NP=    0 IndPr=    0.
 IA=     1 ShT= 2 ShC= 2 NL=   1 NS=   1.
 IA=     1 L=2 SC=2 ISt=    0 NBk=    0 NP=    0 IndPr=    0.
 IA=     2 ShT= 0 ShC= 0 NL=   1 NS=   0.
 IA=     2 L=0 SC=0 ISt=    0 NBk=    0 NP=    0 IndPr=    0.
 IA=     2 ShT= 1 ShC= 0 NL=   2 NS=   1.
 IA=     2 L=1 SC=0 ISt=    0 NBk=    0 NP=    0 IndPr=    0.
 IA=     2 ShT= 2 ShC= 2 NL=   1 NS=   1.
 IA=     2 L=2 SC=2 ISt=    0 NBk=    0 NP=    0 IndPr=    0.
 IA=     3 ShT= 0 ShC= 0 NL=   2 NS=   1.
 IA=     3 L=0 SC=0 ISt=    0 NBk=    0 NP=    0 IndPr=    0.
 IA=     4 ShT= 0 ShC= 0 NL=   1 NS=   0.
 IA=     4 L=0 SC=0 ISt=    0 NBk=    0 NP=    0 IndPr=    0.
 IA=     4 ShT= 1 ShC= 0 NL=   2 NS=   1.
 IA=     4 L=1 SC=0 ISt=    0 NBk=    0 NP=    0 IndPr=    0.
 IA=     4 ShT= 2 ShC= 2 NL=   1 NS=   1.
 IA=     4 L=2 SC=2 ISt=    0 NBk=    0 NP=    0 IndPr=    0.
 IA=     5 ShT= 0 ShC= 0 NL=   2 NS=   1.
 IA=     5 L=0 SC=0 ISt=    0 NBk=    0 NP=    0 IndPr=    0.
 IA=     6 ShT= 0 ShC= 0 NL=   1 NS=   0.
 IA=     6 L=0 SC=0 ISt=    0 NBk=    0 NP=    0 IndPr=    0.
 IA=     6 ShT= 1 ShC= 0 NL=   2 NS=   1.
 IA=     6 L=1 SC=0 ISt=    0 NBk=    0 NP=    0 IndPr=    0.
 IA=     6 ShT= 2 ShC= 2 NL=   1 NS=   1.
 IA=     6 L=2 SC=2 ISt=    0 NBk=    0 NP=    0 IndPr=    0.
 IA=     7 ShT= 0 ShC= 0 NL=   2 NS=   1.
 IA=     7 L=0 SC=0 ISt=    0 NBk=    0 NP=    0 IndPr=    0.
 IA=     8 ShT= 0 ShC= 0 NL=   2 NS=   1.
 IA=     8 L=0 SC=0 ISt=    0 NBk=    0 NP=    0 IndPr=    0.
 IA=     9 ShT= 0 ShC= 0 NL=   2 NS=   1.
 IA=     9 L=0 SC=0 ISt=    0 NBk=    0 NP=    0 IndPr=    0.
 IA=    10 ShT= 0 ShC= 0 NL=   2 NS=   1.
 IA=    10 L=0 SC=0 ISt=    0 NBk=    0 NP=    0 IndPr=    0.
 AO basis set in the form of general basis input (Overlap normalization):
      1 0
 S   6 1.00       0.000000000000
      0.3047524880D+04  0.1834737132D-02
      0.4573695180D+03  0.1403732281D-01
      0.1039486850D+03  0.6884262226D-01
      0.2921015530D+02  0.2321844432D+00
      0.9286662960D+01  0.4679413484D+00
      0.3163926960D+01  0.3623119853D+00
 SP   3 1.00       0.000000000000
      0.7868272350D+01 -0.1193324198D+00  0.6899906659D-01
      0.1881288540D+01 -0.1608541517D+00  0.3164239610D+00
      0.5442492580D+00  0.1143456438D+01  0.7443082909D+00
 SP   1 1.00       0.000000000000
      0.1687144782D+00  0.1000000000D+01  0.1000000000D+01
 D   1 1.00       0.000000000000
      0.8000000000D+00  0.1000000000D+01
 ****
      2 0
 S   6 1.00       0.000000000000
      0.3047524880D+04  0.1834737132D-02
      0.4573695180D+03  0.1403732281D-01
      0.1039486850D+03  0.6884262226D-01
      0.2921015530D+02  0.2321844432D+00
      0.9286662960D+01  0.4679413484D+00
      0.3163926960D+01  0.3623119853D+00
 SP   3 1.00       0.000000000000
      0.7868272350D+01 -0.1193324198D+00  0.6899906659D-01
      0.1881288540D+01 -0.1608541517D+00  0.3164239610D+00
      0.5442492580D+00  0.1143456438D+01  0.7443082909D+00
 SP   1 1.00       0.000000000000
      0.1687144782D+00  0.1000000000D+01  0.1000000000D+01
 D   1 1.00       0.000000000000
      0.8000000000D+00  0.1000000000D+01
 ****
      3 0
 S   3 1.00       0.000000000000
      0.1873113696D+02  0.3349460434D-01
      0.2825394365D+01  0.2347269535D+00
      0.6401216923D+00  0.8137573261D+00
 S   1 1.00       0.000000000000
      0.1612777588D+00  0.1000000000D+01
 ****
      4 0
 S   6 1.00       0.000000000000
      0.3047524880D+04  0.1834737132D-02
      0.4573695180D+03  0.1403732281D-01
      0.1039486850D+03  0.6884262226D-01
      0.2921015530D+02  0.2321844432D+00
      0.9286662960D+01  0.4679413484D+00
      0.3163926960D+01  0.3623119853D+00
 SP   3 1.00       0.000000000000
      0.7868272350D+01 -0.1193324198D+00  0.6899906659D-01
      0.1881288540D+01 -0.1608541517D+00  0.3164239610D+00
      0.5442492580D+00  0.1143456438D+01  0.7443082909D+00
 SP   1 1.00       0.000000000000
      0.1687144782D+00  0.1000000000D+01  0.1000000000D+01
 D   1 1.00       0.000000000000
      0.8000000000D+00  0.1000000000D+01
 ****
      5 0
 S   3 1.00       0.000000000000
      0.1873113696D+02  0.3349460434D-01
      0.2825394365D+01  0.2347269535D+00
      0.6401216923D+00  0.8137573261D+00
 S   1 1.00       0.000000000000
      0.1612777588D+00  0.1000000000D+01
 ****
      6 0
 S   6 1.00       0.000000000000
      0.3047524880D+04  0.1834737132D-02
      0.4573695180D+03  0.1403732281D-01
      0.1039486850D+03  0.6884262226D-01
      0.2921015530D+02  0.2321844432D+00
      0.9286662960D+01  0.4679413484D+00
      0.3163926960D+01  0.3623119853D+00
 SP   3 1.00       0.000000000000
      0.7868272350D+01 -0.1193324198D+00  0.6899906659D-01
      0.1881288540D+01 -0.1608541517D+00  0.3164239610D+00
      0.5442492580D+00  0.1143456438D+01  0.7443082909D+00
 SP   1 1.00       0.000000000000
      0.1687144782D+00  0.1000000000D+01  0.1000000000D+01
 D   1 1.00       0.000000000000
      0.8000000000D+00  0.1000000000D+01
 ****
      7 0
 S   3 1.00       0.000000000000
      0.1873113696D+02  0.3349460434D-01
      0.2825394365D+01  0.2347269535D+00
      0.6401216923D+00  0.8137573261D+00
 S   1 1.00       0.000000000000
      0.1612777588D+00  0.1000000000D+01
 ****
      8 0
 S   3 1.00       0.000000000000
      0.1873113696D+02  0.3349460434D-01
      0.2825394365D+01  0.2347269535D+00
      0.6401216923D+00  0.8137573261D+00
 S   1 1.00       0.000000000000
      0.1612777588D+00  0.1000000000D+01
 ****
      9 0
 S   3 1.00       0.000000000000
      0.1873113696D+02  0.3349460434D-01
      0.2825394365D+01  0.2347269535D+00
      0.6401216923D+00  0.8137573261D+00
 S   1 1.00       0.000000000000
      0.1612777588D+00  0.1000000000D+01
 ****
     10 0
 S   3 1.00       0.000000000000
      0.1873113696D+02  0.3349460434D-01
      0.2825394365D+01  0.2347269535D+00
      0.6401216923D+00  0.8137573261D+00
 S   1 1.00       0.000000000000
      0.1612777588D+00  0.1000000000D+01
 ****

 LdAtmC:  AtmChg=     6.000000     6.000000     1.000000     6.000000     1.000000
 LdAtmC:  AtmChg=     6.000000     1.000000     1.000000     1.000000     1.000000
 AtZEff=     -3.6000000     -3.6000000     -1.0000000     -3.6000000     -1.0000000
 AtZEff=     -3.6000000     -1.0000000     -1.0000000     -1.0000000     -1.0000000
 NEqShl: 
              1            2            3            4
     1            1            1            1            1
     2            2            2            2            2
     3            3            3            3            3
     4            4            4            4            4
     5            5           11            5           11
     6            6           12            6           12
     7            7           13            7           13
     8            8           14            8           14
     9            9           15            9           15
    10           10           16           10           16
    11           11            5           11            5
    12           12            6           12            6
    13           13            7           13            7
    14           14            8           14            8
    15           15            9           15            9
    16           16           10           16           10
    17           17           17           17           17
    18           18           18           18           18
    19           19           19           19           19
    20           20           20           20           20
    21           21           23           21           23
    22           22           24           22           24
    23           23           21           23           21
    24           24           22           24           22
    25           25           27           25           27
    26           26           28           26           28
    27           27           25           27           25
    28           28           26           28           26
 NEqBas: 
              1            2            3            4
     1            1            1            1            1
     2            2            2            2            2
     3            3           -3           -3            3
     4            4           -4            4           -4
     5            5            5            5            5
     6            6            6            6            6
     7            7           -7           -7            7
     8            8           -8            8           -8
     9            9            9            9            9
    10           10           10           10           10
    11           11           11           11           11
    12           12           12           12           12
    13           13           13          -13          -13
    14           14          -14          -14           14
    15           15          -15           15          -15
    16           16           33           16           33
    17           17           34           17           34
    18           18          -35          -18           35
    19           19          -36           19          -36
    20           20           37           20           37
    21           21           38           21           38
    22           22          -39          -22           39
    23           23          -40           23          -40
    24           24           41           24           41
    25           25           42           25           42
    26           26           43           26           43
    27           27           44           27           44
    28           28           45          -28          -45
    29           29          -46          -29           46
    30           30          -47           30          -47
    31           31           48           31           48
    32           32           49           32           49
    33           33           16           33           16
    34           34           17           34           17
    35           35          -18          -35           18
    36           36          -19           36          -19
    37           37           20           37           20
    38           38           21           38           21
    39           39          -22          -39           22
    40           40          -23           40          -23
    41           41           24           41           24
    42           42           25           42           25
    43           43           26           43           26
    44           44           27           44           27
    45           45           28          -45          -28
    46           46          -29          -46           29
    47           47          -30           47          -30
    48           48           31           48           31
    49           49           32           49           32
    50           50           50           50           50
    51           51           51           51           51
    52           52          -52          -52           52
    53           53          -53           53          -53
    54           54           54           54           54
    55           55           55           55           55
    56           56          -56          -56           56
    57           57          -57           57          -57
    58           58           58           58           58
    59           59           59           59           59
    60           60           60           60           60
    61           61           61           61           61
    62           62           62          -62          -62
    63           63          -63          -63           63
    64           64          -64           64          -64
    65           65           67           65           67
    66           66           68           66           68
    67           67           65           67           65
    68           68           66           68           66
    69           69           71           69           71
    70           70           72           70           72
    71           71           69           71           69
    72           72           70           72           70
 There are    33 symmetry adapted cartesian basis functions of A1  symmetry.
   1         1   1   1   1
   2         2   2   2   2
   3         5   5   5   5
   4         6   6   6   6
   5         9   9   9   9
   6        10  10  10  10
   7        11  11  11  11
   8        12  12  12  12
   9        16  33  33  16
  10        17  34  34  17
  11        19 -36 -36  19
  12        20  37  37  20
  13        21  38  38  21
  14        23 -40 -40  23
  15        24  41  41  24
  16        25  42  42  25
  17        26  43  43  26
  18        27  44  44  27
  19        30 -47 -47  30
  20        31  48  48  31
  21        32  49  49  32
  22        50  50  50  50
  23        51  51  51  51
  24        54  54  54  54
  25        55  55  55  55
  26        58  58  58  58
  27        59  59  59  59
  28        60  60  60  60
  29        61  61  61  61
  30        65  67  67  65
  31        66  68  68  66
  32        69  71  71  69
  33        70  72  72  70
 There are     6 symmetry adapted cartesian basis functions of A2  symmetry.
  34        13  13  13  13
  35        18 -35 -35  18
  36        22 -39 -39  22
  37        28  45  45  28
  38        29 -46 -46  29
  39        62  62  62  62
 There are    10 symmetry adapted cartesian basis functions of B1  symmetry.
  40         3   3   3   3
  41         7   7   7   7
  42        14  14  14  14
  43        18  35  35  18
  44        22  39  39  22
  45        28 -45 -45  28
  46        29  46  46  29
  47        52  52  52  52
  48        56  56  56  56
  49        63  63  63  63
 There are    23 symmetry adapted cartesian basis functions of B2  symmetry.
  50         4   4   4   4
  51         8   8   8   8
  52        15  15  15  15
  53        16 -33 -33  16
  54        17 -34 -34  17
  55        19  36  36  19
  56        20 -37 -37  20
  57        21 -38 -38  21
  58        23  40  40  23
  59        24 -41 -41  24
  60        25 -42 -42  25
  61        26 -43 -43  26
  62        27 -44 -44  27
  63        30  47  47  30
  64        31 -48 -48  31
  65        32 -49 -49  32
  66        53  53  53  53
  67        57  57  57  57
  68        64  64  64  64
  69        65 -67 -67  65
  70        66 -68 -68  66
  71        69 -71 -71  69
  72        70 -72 -72  70
 Order= 1 2 4 3
 Reordered character table:
              1            2            3            4            5
     1            1            1            1            1            1
     2            2            1            1           -1           -1
     3            4            1           -1           -1            1
     4            3            1           -1            1           -1
 NEqShl: 
              1            2            3            4
     1            1            1            1            1
     2            2            2            2            2
     3            3            3            3            3
     4            4            4            4            4
     5            5           11            5           11
     6            6           12            6           12
     7            7           13            7           13
     8            8           14            8           14
     9            9           15            9           15
    10           10           16           10           16
    11           11            5           11            5
    12           12            6           12            6
    13           13            7           13            7
    14           14            8           14            8
    15           15            9           15            9
    16           16           10           16           10
    17           17           17           17           17
    18           18           18           18           18
    19           19           19           19           19
    20           20           20           20           20
    21           21           23           21           23
    22           22           24           22           24
    23           23           21           23           21
    24           24           22           24           22
    25           25           27           25           27
    26           26           28           26           28
    27           27           25           27           25
    28           28           26           28           26
 NEqBas: 
              1            2            3            4
     1            1            1            1            1
     2            2            2            2            2
     3            3           -3           -3            3
     4            4           -4            4           -4
     5            5            5            5            5
     6            6            6            6            6
     7            7           -7           -7            7
     8            8           -8            8           -8
     9            9            9            9            9
    10           10           10           10           10
    11           11           11           11           11
    12           12           12           12           12
    13           13           13          -13          -13
    14           14          -14          -14           14
    15           15          -15           15          -15
    16           16           33           16           33
    17           17           34           17           34
    18           18          -35          -18           35
    19           19          -36           19          -36
    20           20           37           20           37
    21           21           38           21           38
    22           22          -39          -22           39
    23           23          -40           23          -40
    24           24           41           24           41
    25           25           42           25           42
    26           26           43           26           43
    27           27           44           27           44
    28           28           45          -28          -45
    29           29          -46          -29           46
    30           30          -47           30          -47
    31           31           48           31           48
    32           32           49           32           49
    33           33           16           33           16
    34           34           17           34           17
    35           35          -18          -35           18
    36           36          -19           36          -19
    37           37           20           37           20
    38           38           21           38           21
    39           39          -22          -39           22
    40           40          -23           40          -23
    41           41           24           41           24
    42           42           25           42           25
    43           43           26           43           26
    44           44           27           44           27
    45           45           28          -45          -28
    46           46          -29          -46           29
    47           47          -30           47          -30
    48           48           31           48           31
    49           49           32           49           32
    50           50           50           50           50
    51           51           51           51           51
    52           52          -52          -52           52
    53           53          -53           53          -53
    54           54           54           54           54
    55           55           55           55           55
    56           56          -56          -56           56
    57           57          -57           57          -57
    58           58           58           58           58
    59           59           59           59           59
    60           60           60           60           60
    61           61           61           61           61
    62           62           62          -62          -62
    63           63          -63          -63           63
    64           64          -64           64          -64
    65           65           67           65           67
    66           66           68           66           68
    67           67           65           67           65
    68           68           66           68           66
    69           69           71           69           71
    70           70           72           70           72
    71           71           69           71           69
    72           72           70           72           70
 There are    33 symmetry adapted basis functions of A1  symmetry.
   1         1   1   1   1
   2         2   2   2   2
   3         5   5   5   5
   4         6   6   6   6
   5         9   9   9   9
   6        10  10  10  10
   7        11  11  11  11
   8        12  12  12  12
   9        16  33  33  16
  10        17  34  34  17
  11        19 -36 -36  19
  12        20  37  37  20
  13        21  38  38  21
  14        23 -40 -40  23
  15        24  41  41  24
  16        25  42  42  25
  17        26  43  43  26
  18        27  44  44  27
  19        30 -47 -47  30
  20        31  48  48  31
  21        32  49  49  32
  22        50  50  50  50
  23        51  51  51  51
  24        54  54  54  54
  25        55  55  55  55
  26        58  58  58  58
  27        59  59  59  59
  28        60  60  60  60
  29        61  61  61  61
  30        65  67  67  65
  31        66  68  68  66
  32        69  71  71  69
  33        70  72  72  70
 There are     6 symmetry adapted basis functions of A2  symmetry.
  34        13  13  13  13
  35        18 -35 -35  18
  36        22 -39 -39  22
  37        28  45  45  28
  38        29 -46 -46  29
  39        62  62  62  62
 There are    10 symmetry adapted basis functions of B1  symmetry.
  40         3   3   3   3
  41         7   7   7   7
  42        14  14  14  14
  43        18  35  35  18
  44        22  39  39  22
  45        28 -45 -45  28
  46        29  46  46  29
  47        52  52  52  52
  48        56  56  56  56
  49        63  63  63  63
 There are    23 symmetry adapted basis functions of B2  symmetry.
  50         4   4   4   4
  51         8   8   8   8
  52        15  15  15  15
  53        16 -33 -33  16
  54        17 -34 -34  17
  55        19  36  36  19
  56        20 -37 -37  20
  57        21 -38 -38  21
  58        23  40  40  23
  59        24 -41 -41  24
  60        25 -42 -42  25
  61        26 -43 -43  26
  62        27 -44 -44  27
  63        30  47  47  30
  64        31 -48 -48  31
  65        32 -49 -49  32
  66        53  53  53  53
  67        57  57  57  57
  68        64  64  64  64
  69        65 -67 -67  65
  70        66 -68 -68  66
  71        69 -71 -71  69
  72        70 -72 -72  70
 Order= 1 2 4 3
 Reordered character table:
              1            2            3            4            5
     1            1            1            1            1            1
     2            2            1            1           -1           -1
     3            4            1           -1           -1            1
     4            3            1           -1            1           -1
    72 basis functions,   136 primitive gaussians,    72 cartesian basis functions
    16 alpha electrons       14 beta electrons
       nuclear repulsion energy       105.2586589883 Hartrees.
 IS=     1 IAt=     1 ISR=     1 T=0 IP=      1 IndIP=      1 IndIPD=      0 C=  5.363452D-01  0.000000D+00                             NZ=T
 IS=     1 IAt=     1 ISR=     1 T=0 IP=      2 IndIP=      2 IndIPD=      1 C=  9.894521D-01  0.000000D+00                             NZ=T
 IS=     1 IAt=     1 ISR=     1 T=0 IP=      3 IndIP=      3 IndIPD=      2 C=  1.597283D+00  0.000000D+00                             NZ=T
 IS=     1 IAt=     1 ISR=     1 T=0 IP=      4 IndIP=      4 IndIPD=      3 C=  2.079187D+00  0.000000D+00                             NZ=T
 IS=     1 IAt=     1 ISR=     1 T=0 IP=      5 IndIP=      5 IndIPD=      4 C=  1.774174D+00  0.000000D+00                             NZ=T
 IS=     1 IAt=     1 ISR=     1 T=0 IP=      6 IndIP=      6 IndIPD=      5 C=  6.125797D-01  0.000000D+00                             NZ=T
 IS=     2 IAt=     1 ISR=     2 T=1 IP=      1 IndIP=      7 IndIPD=      0 C= -3.995564D-01  1.296082D+00                             NZ=T
 IS=     2 IAt=     1 ISR=     2 T=1 IP=      2 IndIP=      8 IndIPD=      1 C= -1.841552D-01  9.937536D-01                             NZ=T
 IS=     2 IAt=     1 ISR=     2 T=1 IP=      3 IndIP=      9 IndIPD=      2 C=  5.163903D-01  4.959527D-01                             NZ=T
 IS=     3 IAt=     1 ISR=     3 T=1 IP=      1 IndIP=     10 IndIPD=      0 C=  1.876179D-01  1.541276D-01                             NZ=T
 IS=     4 IAt=     1 ISR=     4 T=2 IP=      1 IndIP=     11 IndIPD=      1 C=  0.000000D+00  0.000000D+00  1.113825D+00  0.000000D+00 NZ=T
 IS=     5 IAt=     2 ISR=     1 T=0 IP=      1 IndIP=     12 IndIPD=      0 C=  5.363452D-01  0.000000D+00                             NZ=T
 IS=     5 IAt=     2 ISR=     1 T=0 IP=      2 IndIP=     13 IndIPD=      1 C=  9.894521D-01  0.000000D+00                             NZ=T
 IS=     5 IAt=     2 ISR=     1 T=0 IP=      3 IndIP=     14 IndIPD=      2 C=  1.597283D+00  0.000000D+00                             NZ=T
 IS=     5 IAt=     2 ISR=     1 T=0 IP=      4 IndIP=     15 IndIPD=      3 C=  2.079187D+00  0.000000D+00                             NZ=T
 IS=     5 IAt=     2 ISR=     1 T=0 IP=      5 IndIP=     16 IndIPD=      4 C=  1.774174D+00  0.000000D+00                             NZ=T
 IS=     5 IAt=     2 ISR=     1 T=0 IP=      6 IndIP=     17 IndIPD=      5 C=  6.125797D-01  0.000000D+00                             NZ=T
 IS=     6 IAt=     2 ISR=     2 T=1 IP=      1 IndIP=     18 IndIPD=      0 C= -3.995564D-01  1.296082D+00                             NZ=T
 IS=     6 IAt=     2 ISR=     2 T=1 IP=      2 IndIP=     19 IndIPD=      1 C= -1.841552D-01  9.937536D-01                             NZ=T
 IS=     6 IAt=     2 ISR=     2 T=1 IP=      3 IndIP=     20 IndIPD=      2 C=  5.163903D-01  4.959527D-01                             NZ=T
 IS=     7 IAt=     2 ISR=     3 T=1 IP=      1 IndIP=     21 IndIPD=      0 C=  1.876179D-01  1.541276D-01                             NZ=T
 IS=     8 IAt=     2 ISR=     4 T=2 IP=      1 IndIP=     22 IndIPD=      2 C=  0.000000D+00  0.000000D+00  1.113825D+00  0.000000D+00 NZ=T
 IS=     9 IAt=     3 ISR=     1 T=0 IP=      1 IndIP=     23 IndIPD=      0 C=  2.149354D-01  0.000000D+00                             NZ=T
 IS=     9 IAt=     3 ISR=     1 T=0 IP=      2 IndIP=     24 IndIPD=      1 C=  3.645712D-01  0.000000D+00                             NZ=T
 IS=     9 IAt=     3 ISR=     1 T=0 IP=      3 IndIP=     25 IndIPD=      2 C=  4.150514D-01  0.000000D+00                             NZ=T
 IS=    10 IAt=     3 ISR=     2 T=0 IP=      1 IndIP=     26 IndIPD=      0 C=  1.813806D-01  0.000000D+00                             NZ=T
 IS=    11 IAt=     4 ISR=     1 T=0 IP=      1 IndIP=     27 IndIPD=      0 C=  5.363452D-01  0.000000D+00                             NZ=T
 IS=    11 IAt=     4 ISR=     1 T=0 IP=      2 IndIP=     28 IndIPD=      1 C=  9.894521D-01  0.000000D+00                             NZ=T
 IS=    11 IAt=     4 ISR=     1 T=0 IP=      3 IndIP=     29 IndIPD=      2 C=  1.597283D+00  0.000000D+00                             NZ=T
 IS=    11 IAt=     4 ISR=     1 T=0 IP=      4 IndIP=     30 IndIPD=      3 C=  2.079187D+00  0.000000D+00                             NZ=T
 IS=    11 IAt=     4 ISR=     1 T=0 IP=      5 IndIP=     31 IndIPD=      4 C=  1.774174D+00  0.000000D+00                             NZ=T
 IS=    11 IAt=     4 ISR=     1 T=0 IP=      6 IndIP=     32 IndIPD=      5 C=  6.125797D-01  0.000000D+00                             NZ=T
 IS=    12 IAt=     4 ISR=     2 T=1 IP=      1 IndIP=     33 IndIPD=      0 C= -3.995564D-01  1.296082D+00                             NZ=T
 IS=    12 IAt=     4 ISR=     2 T=1 IP=      2 IndIP=     34 IndIPD=      1 C= -1.841552D-01  9.937536D-01                             NZ=T
 IS=    12 IAt=     4 ISR=     2 T=1 IP=      3 IndIP=     35 IndIPD=      2 C=  5.163903D-01  4.959527D-01                             NZ=T
 IS=    13 IAt=     4 ISR=     3 T=1 IP=      1 IndIP=     36 IndIPD=      0 C=  1.876179D-01  1.541276D-01                             NZ=T
 IS=    14 IAt=     4 ISR=     4 T=2 IP=      1 IndIP=     37 IndIPD=      3 C=  0.000000D+00  0.000000D+00  1.113825D+00  0.000000D+00 NZ=T
 IS=    15 IAt=     5 ISR=     1 T=0 IP=      1 IndIP=     38 IndIPD=      0 C=  2.149354D-01  0.000000D+00                             NZ=T
 IS=    15 IAt=     5 ISR=     1 T=0 IP=      2 IndIP=     39 IndIPD=      1 C=  3.645712D-01  0.000000D+00                             NZ=T
 IS=    15 IAt=     5 ISR=     1 T=0 IP=      3 IndIP=     40 IndIPD=      2 C=  4.150514D-01  0.000000D+00                             NZ=T
 IS=    16 IAt=     5 ISR=     2 T=0 IP=      1 IndIP=     41 IndIPD=      0 C=  1.813806D-01  0.000000D+00                             NZ=T
 IS=    17 IAt=     6 ISR=     1 T=0 IP=      1 IndIP=     42 IndIPD=      0 C=  5.363452D-01  0.000000D+00                             NZ=T
 IS=    17 IAt=     6 ISR=     1 T=0 IP=      2 IndIP=     43 IndIPD=      1 C=  9.894521D-01  0.000000D+00                             NZ=T
 IS=    17 IAt=     6 ISR=     1 T=0 IP=      3 IndIP=     44 IndIPD=      2 C=  1.597283D+00  0.000000D+00                             NZ=T
 IS=    17 IAt=     6 ISR=     1 T=0 IP=      4 IndIP=     45 IndIPD=      3 C=  2.079187D+00  0.000000D+00                             NZ=T
 IS=    17 IAt=     6 ISR=     1 T=0 IP=      5 IndIP=     46 IndIPD=      4 C=  1.774174D+00  0.000000D+00                             NZ=T
 IS=    17 IAt=     6 ISR=     1 T=0 IP=      6 IndIP=     47 IndIPD=      5 C=  6.125797D-01  0.000000D+00                             NZ=T
 IS=    18 IAt=     6 ISR=     2 T=1 IP=      1 IndIP=     48 IndIPD=      0 C= -3.995564D-01  1.296082D+00                             NZ=T
 IS=    18 IAt=     6 ISR=     2 T=1 IP=      2 IndIP=     49 IndIPD=      1 C= -1.841552D-01  9.937536D-01                             NZ=T
 IS=    18 IAt=     6 ISR=     2 T=1 IP=      3 IndIP=     50 IndIPD=      2 C=  5.163903D-01  4.959527D-01                             NZ=T
 IS=    19 IAt=     6 ISR=     3 T=1 IP=      1 IndIP=     51 IndIPD=      0 C=  1.876179D-01  1.541276D-01                             NZ=T
 IS=    20 IAt=     6 ISR=     4 T=2 IP=      1 IndIP=     52 IndIPD=      4 C=  0.000000D+00  0.000000D+00  1.113825D+00  0.000000D+00 NZ=T
 IS=    21 IAt=     7 ISR=     1 T=0 IP=      1 IndIP=     53 IndIPD=      0 C=  2.149354D-01  0.000000D+00                             NZ=T
 IS=    21 IAt=     7 ISR=     1 T=0 IP=      2 IndIP=     54 IndIPD=      1 C=  3.645712D-01  0.000000D+00                             NZ=T
 IS=    21 IAt=     7 ISR=     1 T=0 IP=      3 IndIP=     55 IndIPD=      2 C=  4.150514D-01  0.000000D+00                             NZ=T
 IS=    22 IAt=     7 ISR=     2 T=0 IP=      1 IndIP=     56 IndIPD=      0 C=  1.813806D-01  0.000000D+00                             NZ=T
 IS=    23 IAt=     8 ISR=     1 T=0 IP=      1 IndIP=     57 IndIPD=      0 C=  2.149354D-01  0.000000D+00                             NZ=T
 IS=    23 IAt=     8 ISR=     1 T=0 IP=      2 IndIP=     58 IndIPD=      1 C=  3.645712D-01  0.000000D+00                             NZ=T
 IS=    23 IAt=     8 ISR=     1 T=0 IP=      3 IndIP=     59 IndIPD=      2 C=  4.150514D-01  0.000000D+00                             NZ=T
 IS=    24 IAt=     8 ISR=     2 T=0 IP=      1 IndIP=     60 IndIPD=      0 C=  1.813806D-01  0.000000D+00                             NZ=T
 IS=    25 IAt=     9 ISR=     1 T=0 IP=      1 IndIP=     61 IndIPD=      0 C=  2.149354D-01  0.000000D+00                             NZ=T
 IS=    25 IAt=     9 ISR=     1 T=0 IP=      2 IndIP=     62 IndIPD=      1 C=  3.645712D-01  0.000000D+00                             NZ=T
 IS=    25 IAt=     9 ISR=     1 T=0 IP=      3 IndIP=     63 IndIPD=      2 C=  4.150514D-01  0.000000D+00                             NZ=T
 IS=    26 IAt=     9 ISR=     2 T=0 IP=      1 IndIP=     64 IndIPD=      0 C=  1.813806D-01  0.000000D+00                             NZ=T
 IS=    27 IAt=    10 ISR=     1 T=0 IP=      1 IndIP=     65 IndIPD=      0 C=  2.149354D-01  0.000000D+00                             NZ=T
 IS=    27 IAt=    10 ISR=     1 T=0 IP=      2 IndIP=     66 IndIPD=      1 C=  3.645712D-01  0.000000D+00                             NZ=T
 IS=    27 IAt=    10 ISR=     1 T=0 IP=      3 IndIP=     67 IndIPD=      2 C=  4.150514D-01  0.000000D+00                             NZ=T
 IS=    28 IAt=    10 ISR=     2 T=0 IP=      1 IndIP=     68 IndIPD=      0 C=  1.813806D-01  0.000000D+00                             NZ=T
 NAtoms=   10 NActive=   10 NUniq=    6 SFac= 2.78D+00 NAtFMM=   60 NAOKFM=F Big=F
 Integral buffers will be    131072 words long.
 Raffenetti 2 integral format.
 Two-electron integral symmetry is turned on.
 NPDir=0 NMtPBC=     1 NCelOv=     1 NCel=       1 NClECP=     1 NCelD=      1
         NCelK=      1 NCelE2=     1 NClLst=     1 CellRange=     0.0.
 One-electron integrals computed using PRISM.
 Entering OneElI...
 Calculate overlap and kinetic energy integrals
    NBasis =  72  MinDer = 0  MaxDer = 0
 Requested accuracy = 0.1000D-12
 Symmetry will be used
 PrsmSu:  NPrtUS=  24 ThrOK=T IAlg=1 NPAlg=2 LenDen=           0.
 Prism:   IPart=     0 DynPar=F LinDyn=F Incr=           1.
 PRISM was handed   167748352 working-precision words and   406 shell-pairs
 PRISM was handed   167748352 working-precision words and   406 shell-pairs
 PRISM was handed   167748352 working-precision words and   406 shell-pairs
 PRISM was handed   167748352 working-precision words and   406 shell-pairs
 PRISM was handed   167748352 working-precision words and   406 shell-pairs
 PRISM was handed   167748352 working-precision words and   406 shell-pairs
 PRISM was handed   167748352 working-precision words and   406 shell-pairs
 PRISM was handed   167748352 working-precision words and   406 shell-pairs
 PRISM was handed   167748352 working-precision words and   406 shell-pairs
 PRISM was handed   167748352 working-precision words and   406 shell-pairs
 PRISM was handed   167748352 working-precision words and   406 shell-pairs
 PRISM was handed   167748352 working-precision words and   406 shell-pairs
 PRISM was handed   167748352 working-precision words and   406 shell-pairs
 PRISM was handed   167748352 working-precision words and   406 shell-pairs
 PRISM was handed   167748352 working-precision words and   406 shell-pairs
 PRISM was handed   167748352 working-precision words and   406 shell-pairs
 PRISM was handed   167748352 working-precision words and   406 shell-pairs
 IPart= 23 NShTot=           1 NBatch=           1 AvBLen=         1.0
 IPart= 17 NShTot=           2 NBatch=           2 AvBLen=         1.0
 IPart= 15 NShTot=           3 NBatch=           3 AvBLen=         1.0
 IPart= 18 NShTot=           1 NBatch=           1 AvBLen=         1.0
 IPart= 19 NShTot=           1 NBatch=           1 AvBLen=         1.0
 IPart= 21 NShTot=           1 NBatch=           1 AvBLen=         1.0
 IPart= 20 NShTot=           1 NBatch=           1 AvBLen=         1.0
 IPart= 11 NShTot=           8 NBatch=           8 AvBLen=         1.0
 IPart=  9 NShTot=          12 NBatch=          12 AvBLen=         1.0
 IPart=  7 NShTot=          12 NBatch=          12 AvBLen=         1.0
 IPart=  5 NShTot=          14 NBatch=          14 AvBLen=         1.0
 IPart= 10 NShTot=           8 NBatch=           8 AvBLen=         1.0
 IPart=  4 NShTot=          16 NBatch=          16 AvBLen=         1.0
 IPart=  1 NShTot=          30 NBatch=          30 AvBLen=         1.0
 PRISM was handed   167748352 working-precision words and   406 shell-pairs
 IPart= 13 NShTot=           4 NBatch=           4 AvBLen=         1.0
 IPart=  3 NShTot=          17 NBatch=          17 AvBLen=         1.0
 PRISM was handed   167748352 working-precision words and   406 shell-pairs
 PRISM was handed   167748352 working-precision words and   406 shell-pairs
 IPart=  8 NShTot=          12 NBatch=          12 AvBLen=         1.0
 PRISM was handed   167748352 working-precision words and   406 shell-pairs
 PRISM was handed   167748352 working-precision words and   406 shell-pairs
 IPart= 16 NShTot=           3 NBatch=           3 AvBLen=         1.0
 IPart=  2 NShTot=          27 NBatch=          27 AvBLen=         1.0
 IPart= 22 NShTot=           1 NBatch=           1 AvBLen=         1.0
 PRISM was handed   167748352 working-precision words and   406 shell-pairs
 PRISM was handed   167748352 working-precision words and   406 shell-pairs
 IPart=  0 NShTot=          30 NBatch=          30 AvBLen=         1.0
 IPart= 14 NShTot=           3 NBatch=           3 AvBLen=         1.0
 IPart=  6 NShTot=          14 NBatch=          14 AvBLen=         1.0
 IPart= 12 NShTot=           5 NBatch=           5 AvBLen=         1.0
 PrSmSu:  NxtVal=             25.
 *** Overlap *** 
                1             2             3             4             5 
      1  0.100000D+01
      2  0.219059D+00  0.100000D+01
      3  0.000000D+00  0.000000D+00  0.100000D+01
      4  0.000000D+00  0.000000D+00  0.000000D+00  0.100000D+01
      5  0.000000D+00  0.000000D+00  0.000000D+00  0.000000D+00  0.100000D+01
      6  0.184261D+00  0.812273D+00  0.000000D+00  0.000000D+00  0.000000D+00
      7  0.000000D+00  0.000000D+00  0.569754D+00  0.000000D+00  0.000000D+00
      8  0.000000D+00  0.000000D+00  0.000000D+00  0.569754D+00  0.000000D+00
      9  0.000000D+00  0.000000D+00  0.000000D+00  0.000000D+00  0.569754D+00
     10  0.791027D-01  0.710235D+00  0.000000D+00  0.000000D+00  0.000000D+00
     11  0.791027D-01  0.710235D+00  0.000000D+00  0.000000D+00  0.000000D+00
     12  0.791027D-01  0.710235D+00  0.000000D+00  0.000000D+00  0.000000D+00
     13  0.000000D+00  0.000000D+00  0.000000D+00  0.000000D+00  0.000000D+00
     14  0.000000D+00  0.000000D+00  0.000000D+00  0.000000D+00  0.000000D+00
     15  0.000000D+00  0.000000D+00  0.000000D+00  0.000000D+00  0.000000D+00
     16  0.162027D-05  0.140000D-01  0.000000D+00  0.278127D-01 -0.160412D-01
     17  0.140000D-01  0.170693D+00  0.000000D+00  0.213050D+00 -0.122878D+00
     18  0.000000D+00  0.000000D+00  0.943902D-01  0.000000D+00  0.000000D+00
     19 -0.278127D-01 -0.213050D+00  0.000000D+00 -0.206824D+00  0.173728D+00
     20  0.160412D-01  0.122878D+00  0.000000D+00  0.173728D+00 -0.580877D-02
     21  0.575795D-01  0.329550D+00  0.000000D+00  0.211023D+00 -0.121709D+00
     22  0.000000D+00  0.000000D+00  0.221804D+00  0.000000D+00  0.000000D+00
     23 -0.105630D+00 -0.470006D+00  0.000000D+00 -0.916205D-01  0.180770D+00
     24  0.609227D-01  0.271080D+00  0.000000D+00  0.180770D+00  0.117543D+00
     25  0.724961D-03  0.745260D-01  0.000000D+00  0.103159D+00 -0.594981D-01
     26  0.276160D-01  0.238073D+00  0.000000D+00  0.235568D+00 -0.223353D+00
     27  0.967028D-02  0.128930D+00  0.000000D+00  0.197664D+00 -0.265174D-01
     28  0.000000D+00  0.000000D+00 -0.131365D+00  0.000000D+00  0.000000D+00
     29  0.000000D+00  0.000000D+00  0.757659D-01  0.000000D+00  0.000000D+00
     30 -0.268635D-01 -0.163380D+00  0.000000D+00 -0.208038D+00  0.323216D-01
     31  0.275771D-04  0.620915D-02  0.000000D+00  0.779742D-02 -0.111869D-01
     32  0.125784D-01  0.994224D-01  0.000000D+00  0.600530D-01 -0.861575D-01
     33  0.162027D-05  0.140000D-01  0.000000D+00 -0.278127D-01 -0.160412D-01
     34  0.140000D-01  0.170693D+00  0.000000D+00 -0.213050D+00 -0.122878D+00
     35  0.000000D+00  0.000000D+00  0.943902D-01  0.000000D+00  0.000000D+00
     36  0.278127D-01  0.213050D+00  0.000000D+00 -0.206824D+00 -0.173728D+00
     37  0.160412D-01  0.122878D+00  0.000000D+00 -0.173728D+00 -0.580877D-02
     38  0.575795D-01  0.329550D+00  0.000000D+00 -0.211023D+00 -0.121709D+00
     39  0.000000D+00  0.000000D+00  0.221804D+00  0.000000D+00  0.000000D+00
     40  0.105630D+00  0.470006D+00  0.000000D+00 -0.916205D-01 -0.180770D+00
     41  0.609227D-01  0.271080D+00  0.000000D+00 -0.180770D+00  0.117543D+00
     42  0.724961D-03  0.745260D-01  0.000000D+00 -0.103159D+00 -0.594981D-01
     43  0.276160D-01  0.238073D+00  0.000000D+00 -0.235568D+00 -0.223353D+00
     44  0.967028D-02  0.128930D+00  0.000000D+00 -0.197664D+00 -0.265174D-01
     45  0.000000D+00  0.000000D+00  0.131365D+00  0.000000D+00  0.000000D+00
     46  0.000000D+00  0.000000D+00  0.757659D-01  0.000000D+00  0.000000D+00
     47  0.268635D-01  0.163380D+00  0.000000D+00 -0.208038D+00 -0.323216D-01
     48  0.275771D-04  0.620915D-02  0.000000D+00 -0.779742D-02 -0.111869D-01
     49  0.125784D-01  0.994224D-01  0.000000D+00 -0.600530D-01 -0.861575D-01
     50  0.160051D-05  0.139479D-01  0.000000D+00  0.000000D+00  0.320036D-01
     51  0.139479D-01  0.170354D+00  0.000000D+00  0.000000D+00  0.245557D+00
     52  0.000000D+00  0.000000D+00  0.941736D-01  0.000000D+00  0.000000D+00
     53  0.000000D+00  0.000000D+00  0.000000D+00  0.941736D-01  0.000000D+00
     54 -0.320036D-01 -0.245557D+00  0.000000D+00  0.000000D+00 -0.306712D+00
     55  0.575072D-01  0.329228D+00  0.000000D+00  0.000000D+00  0.243490D+00
     56  0.000000D+00  0.000000D+00  0.221578D+00  0.000000D+00  0.000000D+00
     57  0.000000D+00  0.000000D+00  0.000000D+00  0.221578D+00  0.000000D+00
     58 -0.121852D+00 -0.542343D+00  0.000000D+00  0.000000D+00 -0.196131D+00
     59  0.721322D-03  0.743415D-01  0.000000D+00  0.000000D+00  0.118847D+00
     60  0.721322D-03  0.743415D-01  0.000000D+00  0.000000D+00  0.118847D+00
     61  0.364093D-01  0.292023D+00  0.000000D+00  0.000000D+00  0.380650D+00
     62  0.000000D+00  0.000000D+00  0.000000D+00  0.000000D+00  0.000000D+00
     63  0.000000D+00  0.000000D+00 -0.151322D+00  0.000000D+00  0.000000D+00
     64  0.000000D+00  0.000000D+00  0.000000D+00 -0.151322D+00  0.000000D+00
     65  0.275826D-04  0.620982D-02  0.000000D+00 -0.135894D-01 -0.114548D-02
     66  0.125791D-01  0.994268D-01  0.000000D+00 -0.104654D+00 -0.882153D-02
     67  0.275826D-04  0.620982D-02  0.000000D+00  0.135894D-01 -0.114548D-02
     68  0.125791D-01  0.994268D-01  0.000000D+00  0.104654D+00 -0.882153D-02
     69  0.276304D-04  0.621562D-02  0.000000D+00 -0.580753D-02  0.123521D-01
     70  0.125853D-01  0.994655D-01  0.000000D+00 -0.447003D-01  0.950733D-01
     71  0.276304D-04  0.621562D-02  0.000000D+00  0.580753D-02  0.123521D-01
     72  0.125853D-01  0.994655D-01  0.000000D+00  0.447003D-01  0.950733D-01
                6             7             8             9            10 
      6  0.100000D+01
      7  0.000000D+00  0.100000D+01
      8  0.000000D+00  0.000000D+00  0.100000D+01
      9  0.000000D+00  0.000000D+00  0.000000D+00  0.100000D+01
     10  0.629936D+00  0.000000D+00  0.000000D+00  0.000000D+00  0.100000D+01
     11  0.629936D+00  0.000000D+00  0.000000D+00  0.000000D+00  0.333333D+00
     12  0.629936D+00  0.000000D+00  0.000000D+00  0.000000D+00  0.333333D+00
     13  0.000000D+00  0.000000D+00  0.000000D+00  0.000000D+00  0.000000D+00
     14  0.000000D+00  0.000000D+00  0.000000D+00  0.000000D+00  0.000000D+00
     15  0.000000D+00  0.000000D+00  0.000000D+00  0.000000D+00  0.000000D+00
     16  0.575795D-01  0.000000D+00  0.105630D+00 -0.609227D-01  0.724961D-03
     17  0.329550D+00  0.000000D+00  0.470006D+00 -0.271080D+00  0.745260D-01
     18  0.000000D+00  0.221804D+00  0.000000D+00  0.000000D+00  0.000000D+00
     19 -0.211023D+00  0.000000D+00 -0.916205D-01  0.180770D+00 -0.103159D+00
     20  0.121709D+00  0.000000D+00  0.180770D+00  0.117543D+00  0.594981D-01
     21  0.547099D+00  0.000000D+00  0.520507D+00 -0.300207D+00  0.232630D+00
     22  0.000000D+00  0.547099D+00  0.000000D+00  0.000000D+00  0.000000D+00
     23 -0.520507D+00  0.000000D+00  0.518906D-01  0.285615D+00 -0.365554D+00
     24  0.300207D+00  0.000000D+00  0.285615D+00  0.382367D+00  0.210836D+00
     25  0.232630D+00  0.000000D+00  0.365554D+00 -0.210836D+00  0.572763D-01
     26  0.305976D+00  0.000000D+00  0.326624D+00 -0.277311D+00  0.101035D+00
     27  0.257029D+00  0.000000D+00  0.403894D+00 -0.144021D+00  0.463506D-01
     28  0.000000D+00 -0.133529D+00  0.000000D+00  0.000000D+00  0.000000D+00
     29  0.000000D+00  0.770138D-01  0.000000D+00  0.000000D+00  0.000000D+00
     30 -0.732706D-01  0.000000D+00 -0.381232D-01 -0.671224D-01 -0.818594D-01
     31  0.663351D-01  0.000000D+00  0.103289D+00 -0.148187D+00  0.121095D-02
     32  0.245344D+00  0.000000D+00  0.232484D+00 -0.333542D+00  0.630880D-01
     33  0.575795D-01  0.000000D+00 -0.105630D+00 -0.609227D-01  0.724961D-03
     34  0.329550D+00  0.000000D+00 -0.470006D+00 -0.271080D+00  0.745260D-01
     35  0.000000D+00  0.221804D+00  0.000000D+00  0.000000D+00  0.000000D+00
     36  0.211023D+00  0.000000D+00 -0.916205D-01 -0.180770D+00  0.103159D+00
     37  0.121709D+00  0.000000D+00 -0.180770D+00  0.117543D+00  0.594981D-01
     38  0.547099D+00  0.000000D+00 -0.520507D+00 -0.300207D+00  0.232630D+00
     39  0.000000D+00  0.547099D+00  0.000000D+00  0.000000D+00  0.000000D+00
     40  0.520507D+00  0.000000D+00  0.518906D-01 -0.285615D+00  0.365554D+00
     41  0.300207D+00  0.000000D+00 -0.285615D+00  0.382367D+00  0.210836D+00
     42  0.232630D+00  0.000000D+00 -0.365554D+00 -0.210836D+00  0.572763D-01
     43  0.305976D+00  0.000000D+00 -0.326624D+00 -0.277311D+00  0.101035D+00
     44  0.257029D+00  0.000000D+00 -0.403894D+00 -0.144021D+00  0.463506D-01
     45  0.000000D+00  0.133529D+00  0.000000D+00  0.000000D+00  0.000000D+00
     46  0.000000D+00  0.770138D-01  0.000000D+00  0.000000D+00  0.000000D+00
     47  0.732706D-01  0.000000D+00 -0.381232D-01  0.671224D-01  0.818594D-01
     48  0.663351D-01  0.000000D+00 -0.103289D+00 -0.148187D+00  0.121095D-02
     49  0.245344D+00  0.000000D+00 -0.232484D+00 -0.333542D+00  0.630880D-01
     50  0.575072D-01  0.000000D+00  0.000000D+00  0.121852D+00  0.721322D-03
     51  0.329228D+00  0.000000D+00  0.000000D+00  0.542343D+00  0.743415D-01
     52  0.000000D+00  0.221578D+00  0.000000D+00  0.000000D+00  0.000000D+00
     53  0.000000D+00  0.000000D+00  0.221578D+00  0.000000D+00  0.000000D+00
     54 -0.243490D+00  0.000000D+00  0.000000D+00 -0.196131D+00 -0.118847D+00
     55  0.546742D+00  0.000000D+00  0.000000D+00  0.600809D+00  0.232380D+00
     56  0.000000D+00  0.546742D+00  0.000000D+00  0.000000D+00  0.000000D+00
     57  0.000000D+00  0.000000D+00  0.546742D+00  0.000000D+00  0.000000D+00
     58 -0.600809D+00  0.000000D+00  0.000000D+00 -0.113480D+00 -0.421771D+00
     59  0.232380D+00  0.000000D+00  0.000000D+00  0.421771D+00  0.570996D-01
     60  0.232380D+00  0.000000D+00  0.000000D+00  0.421771D+00  0.190332D-01
     61  0.330125D+00  0.000000D+00  0.000000D+00  0.421281D+00  0.128016D+00
     62  0.000000D+00  0.000000D+00  0.000000D+00  0.000000D+00  0.000000D+00
     63  0.000000D+00 -0.154064D+00  0.000000D+00  0.000000D+00  0.000000D+00
     64  0.000000D+00  0.000000D+00 -0.154064D+00  0.000000D+00  0.000000D+00
     65  0.663383D-01  0.000000D+00 -0.180001D+00 -0.151727D-01  0.121111D-02
     66  0.245352D+00  0.000000D+00 -0.405141D+00 -0.341503D-01  0.630911D-01
     67  0.663383D-01  0.000000D+00  0.180001D+00 -0.151727D-01  0.121111D-02
     68  0.245352D+00  0.000000D+00  0.405141D+00 -0.341503D-01  0.630911D-01
     69  0.663668D-01  0.000000D+00 -0.768851D-01  0.163527D+00  0.121247D-02
     70  0.245416D+00  0.000000D+00 -0.173022D+00  0.368000D+00  0.631179D-01
     71  0.663668D-01  0.000000D+00  0.768851D-01  0.163527D+00  0.121247D-02
     72  0.245416D+00  0.000000D+00  0.173022D+00  0.368000D+00  0.631179D-01
               11            12            13            14            15 
     11  0.100000D+01
     12  0.333333D+00  0.100000D+01
     13  0.000000D+00  0.000000D+00  0.100000D+01
     14  0.000000D+00  0.000000D+00  0.000000D+00  0.100000D+01
     15  0.000000D+00  0.000000D+00  0.000000D+00  0.000000D+00  0.100000D+01
     16  0.276160D-01  0.967028D-02  0.000000D+00  0.000000D+00 -0.268635D-01
     17  0.238073D+00  0.128930D+00  0.000000D+00  0.000000D+00 -0.163380D+00
     18  0.000000D+00  0.000000D+00  0.131365D+00 -0.757659D-01  0.000000D+00
     19 -0.235568D+00 -0.197664D+00  0.000000D+00  0.000000D+00  0.208038D+00
     20  0.223353D+00  0.265174D-01  0.000000D+00  0.000000D+00 -0.323216D-01
     21  0.305976D+00  0.257029D+00  0.000000D+00  0.000000D+00 -0.732706D-01
     22  0.000000D+00  0.000000D+00  0.133529D+00 -0.770138D-01  0.000000D+00
     23 -0.326624D+00 -0.403894D+00  0.000000D+00  0.000000D+00  0.381232D-01
     24  0.277311D+00  0.144021D+00  0.000000D+00  0.000000D+00  0.671224D-01
     25  0.101035D+00  0.463506D-01  0.000000D+00  0.000000D+00 -0.818594D-01
     26  0.245090D+00  0.245287D+00  0.000000D+00  0.000000D+00 -0.269481D+00
     27  0.245287D+00  0.416773D-01  0.000000D+00  0.000000D+00 -0.350142D-01
     28  0.000000D+00  0.000000D+00 -0.188554D+00  0.141785D+00  0.000000D+00
     29  0.000000D+00  0.000000D+00  0.141785D+00 -0.244992D-01  0.000000D+00
     30 -0.269481D+00 -0.350142D-01  0.000000D+00  0.000000D+00  0.806512D-01
     31  0.507315D-02  0.916067D-02  0.000000D+00  0.000000D+00 -0.959741D-02
     32  0.821056D-01  0.102233D+00  0.000000D+00  0.000000D+00 -0.472579D-01
     33  0.276160D-01  0.967028D-02  0.000000D+00  0.000000D+00  0.268635D-01
     34  0.238073D+00  0.128930D+00  0.000000D+00  0.000000D+00  0.163380D+00
     35  0.000000D+00  0.000000D+00 -0.131365D+00 -0.757659D-01  0.000000D+00
     36  0.235568D+00  0.197664D+00  0.000000D+00  0.000000D+00  0.208038D+00
     37  0.223353D+00  0.265174D-01  0.000000D+00  0.000000D+00  0.323216D-01
     38  0.305976D+00  0.257029D+00  0.000000D+00  0.000000D+00  0.732706D-01
     39  0.000000D+00  0.000000D+00 -0.133529D+00 -0.770138D-01  0.000000D+00
     40  0.326624D+00  0.403894D+00  0.000000D+00  0.000000D+00  0.381232D-01
     41  0.277311D+00  0.144021D+00  0.000000D+00  0.000000D+00 -0.671224D-01
     42  0.101035D+00  0.463506D-01  0.000000D+00  0.000000D+00  0.818594D-01
     43  0.245090D+00  0.245287D+00  0.000000D+00  0.000000D+00  0.269481D+00
     44  0.245287D+00  0.416773D-01  0.000000D+00  0.000000D+00  0.350142D-01
     45  0.000000D+00  0.000000D+00 -0.188554D+00 -0.141785D+00  0.000000D+00
     46  0.000000D+00  0.000000D+00 -0.141785D+00 -0.244992D-01  0.000000D+00
     47  0.269481D+00  0.350142D-01  0.000000D+00  0.000000D+00  0.806512D-01
     48  0.507315D-02  0.916067D-02  0.000000D+00  0.000000D+00  0.959741D-02
     49  0.821056D-01  0.102233D+00  0.000000D+00  0.000000D+00  0.472579D-01
     50  0.721322D-03  0.364093D-01  0.000000D+00  0.000000D+00  0.000000D+00
     51  0.743415D-01  0.292023D+00  0.000000D+00  0.000000D+00  0.000000D+00
     52  0.000000D+00  0.000000D+00  0.000000D+00  0.151322D+00  0.000000D+00
     53  0.000000D+00  0.000000D+00  0.000000D+00  0.000000D+00  0.151322D+00
     54 -0.118847D+00 -0.380650D+00  0.000000D+00  0.000000D+00  0.000000D+00
     55  0.232380D+00  0.330125D+00  0.000000D+00  0.000000D+00  0.000000D+00
     56  0.000000D+00  0.000000D+00  0.000000D+00  0.154064D+00  0.000000D+00
     57  0.000000D+00  0.000000D+00  0.000000D+00  0.000000D+00  0.154064D+00
     58 -0.421771D+00 -0.421281D+00  0.000000D+00  0.000000D+00  0.000000D+00
     59  0.190332D-01  0.128016D+00  0.000000D+00  0.000000D+00  0.000000D+00
     60  0.570996D-01  0.128016D+00  0.000000D+00  0.000000D+00  0.000000D+00
     61  0.128016D+00  0.463159D+00  0.000000D+00  0.000000D+00  0.000000D+00
     62  0.000000D+00  0.000000D+00  0.570996D-01  0.000000D+00  0.000000D+00
     63  0.000000D+00  0.000000D+00  0.000000D+00 -0.269848D+00  0.000000D+00
     64  0.000000D+00  0.000000D+00  0.000000D+00  0.000000D+00 -0.269848D+00
     65  0.129410D-01  0.129445D-02  0.000000D+00  0.000000D+00  0.171254D-02
     66  0.120845D+00  0.635014D-01  0.000000D+00  0.000000D+00  0.843193D-02
     67  0.129410D-01  0.129445D-02  0.000000D+00  0.000000D+00 -0.171254D-02
     68  0.120845D+00  0.635014D-01  0.000000D+00  0.000000D+00 -0.843193D-02
     69  0.335313D-02  0.108962D-01  0.000000D+00  0.000000D+00 -0.788597D-02
     70  0.736502D-01  0.110763D+00  0.000000D+00  0.000000D+00 -0.388002D-01
     71  0.335313D-02  0.108962D-01  0.000000D+00  0.000000D+00  0.788597D-02
     72  0.736502D-01  0.110763D+00  0.000000D+00  0.000000D+00  0.388002D-01
               16            17            18            19            20 
     16  0.100000D+01
     17  0.219059D+00  0.100000D+01
     18  0.000000D+00  0.000000D+00  0.100000D+01
     19  0.000000D+00  0.000000D+00  0.000000D+00  0.100000D+01
     20  0.000000D+00  0.000000D+00  0.000000D+00  0.000000D+00  0.100000D+01
     21  0.184261D+00  0.812273D+00  0.000000D+00  0.000000D+00  0.000000D+00
     22  0.000000D+00  0.000000D+00  0.569754D+00  0.000000D+00  0.000000D+00
     23  0.000000D+00  0.000000D+00  0.000000D+00  0.569754D+00  0.000000D+00
     24  0.000000D+00  0.000000D+00  0.000000D+00  0.000000D+00  0.569754D+00
     25  0.791027D-01  0.710235D+00  0.000000D+00  0.000000D+00  0.000000D+00
     26  0.791027D-01  0.710235D+00  0.000000D+00  0.000000D+00  0.000000D+00
     27  0.791027D-01  0.710235D+00  0.000000D+00  0.000000D+00  0.000000D+00
     28  0.000000D+00  0.000000D+00  0.000000D+00  0.000000D+00  0.000000D+00
     29  0.000000D+00  0.000000D+00  0.000000D+00  0.000000D+00  0.000000D+00
     30  0.000000D+00  0.000000D+00  0.000000D+00  0.000000D+00  0.000000D+00
     31  0.334442D-01  0.276752D+00  0.000000D+00  0.797329D-02 -0.372342D+00
     32  0.927448D-01  0.478334D+00  0.000000D+00  0.569146D-02 -0.265783D+00
     33  0.000000D+00  0.146954D-04  0.000000D+00 -0.571204D-04  0.000000D+00
     34  0.146954D-04  0.376976D-02  0.000000D+00 -0.849495D-02  0.000000D+00
     35  0.000000D+00  0.000000D+00  0.164698D-02  0.000000D+00  0.000000D+00
     36  0.571204D-04  0.849495D-02  0.000000D+00 -0.178166D-01  0.000000D+00
     37  0.000000D+00  0.000000D+00  0.000000D+00  0.000000D+00  0.164698D-02
     38  0.562018D-02  0.536086D-01  0.000000D+00 -0.645159D-01  0.000000D+00
     39  0.000000D+00  0.000000D+00  0.339060D-01  0.000000D+00  0.000000D+00
     40  0.206045D-01  0.153912D+00  0.000000D+00 -0.156508D+00  0.000000D+00
     41  0.000000D+00  0.000000D+00  0.000000D+00  0.000000D+00  0.339060D-01
     42  0.000000D+00  0.731824D-03  0.000000D+00 -0.194061D-02  0.000000D+00
     43  0.838476D-05  0.763931D-02  0.000000D+00 -0.177470D-01  0.000000D+00
     44  0.000000D+00  0.731824D-03  0.000000D+00 -0.194061D-02  0.000000D+00
     45  0.000000D+00  0.000000D+00  0.229286D-02  0.000000D+00  0.000000D+00
     46  0.000000D+00  0.000000D+00  0.000000D+00  0.000000D+00  0.000000D+00
     47  0.000000D+00  0.000000D+00  0.000000D+00  0.000000D+00  0.229286D-02
     48  0.000000D+00  0.433175D-03  0.000000D+00 -0.105676D-02 -0.463292D-03
     49  0.308243D-02  0.327295D-01  0.000000D+00 -0.379872D-01 -0.166539D-01
     50  0.000000D+00  0.147297D-04  0.000000D+00 -0.286270D-04  0.495758D-04
     51  0.147297D-04  0.377477D-02  0.000000D+00 -0.425315D-02  0.736556D-02
     52  0.000000D+00  0.000000D+00  0.164921D-02  0.000000D+00  0.000000D+00
     53  0.286270D-04  0.425315D-02  0.000000D+00 -0.322331D-02  0.843817D-02
     54 -0.495758D-04 -0.736556D-02  0.000000D+00  0.843817D-02 -0.129639D-01
     55  0.562466D-02  0.536420D-01  0.000000D+00 -0.322787D-01  0.558998D-01
     56  0.000000D+00  0.000000D+00  0.339277D-01  0.000000D+00  0.000000D+00
     57  0.103105D-01  0.770041D-01  0.000000D+00 -0.137064D-01  0.824922D-01
     58 -0.178555D-01 -0.133355D+00  0.000000D+00  0.824922D-01 -0.108931D+00
     59  0.000000D+00  0.732987D-03  0.000000D+00 -0.971850D-03  0.168304D-02
     60  0.215581D-05  0.246260D-02  0.000000D+00 -0.195638D-02  0.568421D-02
     61  0.632439D-05  0.592024D-02  0.000000D+00 -0.790102D-02  0.113867D-01
     62  0.000000D+00  0.000000D+00  0.114826D-02  0.000000D+00  0.000000D+00
     63  0.000000D+00  0.000000D+00 -0.198854D-02  0.000000D+00  0.000000D+00
     64 -0.625477D-05 -0.518805D-02  0.000000D+00  0.494169D-02 -0.108534D-01
     65  0.000000D+00  0.364240D-05  0.000000D+00 -0.121589D-04  0.187089D-05
     66  0.246558D-03  0.441309D-02  0.000000D+00 -0.676235D-02  0.104052D-02
     67  0.334223D-01  0.276658D+00  0.000000D+00  0.326158D+00  0.179590D+00
     68  0.927281D-01  0.478267D+00  0.000000D+00  0.232873D+00  0.128225D+00
     69  0.000000D+00  0.365972D-05  0.000000D+00 -0.773823D-05  0.963562D-05
     70  0.247178D-03  0.442190D-02  0.000000D+00 -0.429202D-02  0.534441D-02
     71  0.000000D+00  0.439038D-03  0.000000D+00 -0.128325D-03  0.116143D-02
     72  0.310441D-02  0.329140D-01  0.000000D+00 -0.457740D-02  0.414285D-01
               21            22            23            24            25 
     21  0.100000D+01
     22  0.000000D+00  0.100000D+01
     23  0.000000D+00  0.000000D+00  0.100000D+01
     24  0.000000D+00  0.000000D+00  0.000000D+00  0.100000D+01
     25  0.629936D+00  0.000000D+00  0.000000D+00  0.000000D+00  0.100000D+01
     26  0.629936D+00  0.000000D+00  0.000000D+00  0.000000D+00  0.333333D+00
     27  0.629936D+00  0.000000D+00  0.000000D+00  0.000000D+00  0.333333D+00
     28  0.000000D+00  0.000000D+00  0.000000D+00  0.000000D+00  0.000000D+00
     29  0.000000D+00  0.000000D+00  0.000000D+00  0.000000D+00  0.000000D+00
     30  0.000000D+00  0.000000D+00  0.000000D+00  0.000000D+00  0.000000D+00
     31  0.378979D+00  0.000000D+00  0.110334D-01 -0.515246D+00  0.119233D+00
     32  0.706721D+00  0.000000D+00  0.124569D-01 -0.581721D+00  0.353070D+00
     33  0.562018D-02  0.000000D+00 -0.206045D-01  0.000000D+00  0.000000D+00
     34  0.536086D-01  0.000000D+00 -0.153912D+00  0.000000D+00  0.731824D-03
     35  0.000000D+00  0.339060D-01  0.000000D+00  0.000000D+00  0.000000D+00
     36  0.645159D-01  0.000000D+00 -0.156508D+00  0.000000D+00  0.194061D-02
     37  0.000000D+00  0.000000D+00  0.000000D+00  0.339060D-01  0.000000D+00
     38  0.163604D+00  0.000000D+00 -0.311304D+00  0.000000D+00  0.316768D-01
     39  0.000000D+00  0.163604D+00  0.000000D+00  0.000000D+00  0.000000D+00
     40  0.311304D+00  0.000000D+00 -0.428743D+00  0.000000D+00  0.995535D-01
     41  0.000000D+00  0.000000D+00  0.000000D+00  0.163604D+00  0.000000D+00
     42  0.316768D-01  0.000000D+00 -0.995535D-01  0.000000D+00  0.187075D-03
     43  0.716261D-01  0.000000D+00 -0.183116D+00  0.000000D+00  0.113293D-02
     44  0.316768D-01  0.000000D+00 -0.995535D-01  0.000000D+00  0.623585D-04
     45  0.000000D+00  0.363646D-01  0.000000D+00  0.000000D+00  0.000000D+00
     46  0.000000D+00  0.000000D+00  0.000000D+00  0.000000D+00  0.000000D+00
     47  0.000000D+00  0.000000D+00  0.000000D+00  0.363646D-01  0.000000D+00
     48  0.195352D-01  0.000000D+00 -0.600972D-01 -0.263471D-01  0.486763D-04
     49  0.116465D+00  0.000000D+00 -0.218667D+00 -0.958651D-01  0.187599D-01
     50  0.562466D-02  0.000000D+00 -0.103105D-01  0.178555D-01  0.000000D+00
     51  0.536420D-01  0.000000D+00 -0.770041D-01  0.133355D+00  0.732987D-03
     52  0.000000D+00  0.339277D-01  0.000000D+00  0.000000D+00  0.000000D+00
     53  0.322787D-01  0.000000D+00 -0.137064D-01  0.824922D-01  0.971850D-03
     54 -0.558998D-01  0.000000D+00  0.824922D-01 -0.108931D+00 -0.168304D-02
     55  0.163672D+00  0.000000D+00 -0.155717D+00  0.269668D+00  0.316984D-01
     56  0.000000D+00  0.163672D+00  0.000000D+00  0.000000D+00  0.000000D+00
     57  0.155717D+00  0.000000D+00  0.155238D-01  0.256561D+00  0.498107D-01
     58 -0.269668D+00  0.000000D+00  0.256561D+00 -0.280637D+00 -0.862616D-01
     59  0.316984D-01  0.000000D+00 -0.498107D-01  0.862616D-01  0.187443D-03
     60  0.416926D-01  0.000000D+00 -0.445060D-01  0.113459D+00  0.330649D-03
     61  0.616718D-01  0.000000D+00 -0.969107D-01  0.131445D+00  0.866740D-03
     62  0.000000D+00  0.181947D-01  0.000000D+00  0.000000D+00  0.000000D+00
     63  0.000000D+00 -0.315094D-01  0.000000D+00  0.000000D+00  0.000000D+00
     64 -0.299779D-01  0.000000D+00  0.155977D-01 -0.633848D-01 -0.804381D-03
     65  0.218729D-02  0.000000D+00 -0.921507D-02  0.141791D-02  0.000000D+00
     66  0.305245D-01  0.000000D+00 -0.787904D-01  0.121234D-01  0.212133D-02
     67  0.378919D+00  0.000000D+00  0.451443D+00  0.248575D+00  0.119183D+00
     68  0.706654D+00  0.000000D+00  0.509717D+00  0.280662D+00  0.353015D+00
     69  0.219205D-02  0.000000D+00 -0.584961D-02  0.728392D-02  0.000000D+00
     70  0.305651D-01  0.000000D+00 -0.499730D-01  0.622262D-01  0.212593D-02
     71  0.196561D-01  0.000000D+00 -0.724466D-02  0.655690D-01  0.494732D-04
     72  0.116904D+00  0.000000D+00 -0.262964D-01  0.238000D+00  0.188753D-01
               26            27            28            29            30 
     26  0.100000D+01
     27  0.333333D+00  0.100000D+01
     28  0.000000D+00  0.000000D+00  0.100000D+01
     29  0.000000D+00  0.000000D+00  0.000000D+00  0.100000D+01
     30  0.000000D+00  0.000000D+00  0.000000D+00  0.000000D+00  0.100000D+01
     31  0.119389D+00  0.459673D+00  0.000000D+00  0.000000D+00 -0.126269D-01
     32  0.353107D+00  0.433380D+00  0.000000D+00  0.000000D+00 -0.297870D-02
     33  0.838476D-05  0.000000D+00  0.000000D+00  0.000000D+00  0.000000D+00
     34  0.763931D-02  0.731824D-03  0.000000D+00  0.000000D+00  0.000000D+00
     35  0.000000D+00  0.000000D+00 -0.229286D-02  0.000000D+00  0.000000D+00
     36  0.177470D-01  0.194061D-02  0.000000D+00  0.000000D+00  0.000000D+00
     37  0.000000D+00  0.000000D+00  0.000000D+00  0.000000D+00 -0.229286D-02
     38  0.716261D-01  0.316768D-01  0.000000D+00  0.000000D+00  0.000000D+00
     39  0.000000D+00  0.000000D+00 -0.363646D-01  0.000000D+00  0.000000D+00
     40  0.183116D+00  0.995535D-01  0.000000D+00  0.000000D+00  0.000000D+00
     41  0.000000D+00  0.000000D+00  0.000000D+00  0.000000D+00 -0.363646D-01
     42  0.113293D-02  0.623585D-04  0.000000D+00  0.000000D+00  0.000000D+00
     43  0.164255D-01  0.113293D-02  0.000000D+00  0.000000D+00  0.000000D+00
     44  0.113293D-02  0.187075D-03  0.000000D+00  0.000000D+00  0.000000D+00
     45  0.000000D+00  0.000000D+00 -0.302464D-02  0.000000D+00  0.000000D+00
     46  0.000000D+00  0.000000D+00  0.000000D+00  0.187075D-03  0.000000D+00
     47  0.000000D+00  0.000000D+00  0.000000D+00  0.000000D+00 -0.302464D-02
     48  0.654761D-03  0.165166D-03  0.000000D+00  0.000000D+00  0.460227D-03
     49  0.409615D-01  0.230271D-01  0.000000D+00  0.000000D+00  0.168586D-01
     50  0.215581D-05  0.632439D-05  0.000000D+00  0.000000D+00 -0.625477D-05
     51  0.246260D-02  0.592024D-02  0.000000D+00  0.000000D+00 -0.518805D-02
     52  0.000000D+00  0.000000D+00 -0.114826D-02  0.198854D-02  0.000000D+00
     53  0.195638D-02  0.790102D-02  0.000000D+00  0.000000D+00 -0.494169D-02
     54 -0.568421D-02 -0.113867D-01  0.000000D+00  0.000000D+00  0.108534D-01
     55  0.416926D-01  0.616718D-01  0.000000D+00  0.000000D+00 -0.299779D-01
     56  0.000000D+00  0.000000D+00 -0.181947D-01  0.315094D-01  0.000000D+00
     57  0.445060D-01  0.969107D-01  0.000000D+00  0.000000D+00 -0.155977D-01
     58 -0.113459D+00 -0.131445D+00  0.000000D+00  0.000000D+00  0.633848D-01
     59  0.330649D-03  0.866740D-03  0.000000D+00  0.000000D+00 -0.804381D-03
     60  0.802083D-03  0.458678D-02  0.000000D+00  0.000000D+00 -0.264802D-02
     61  0.458678D-02  0.893140D-02  0.000000D+00  0.000000D+00 -0.954967D-02
     62  0.000000D+00  0.000000D+00 -0.617061D-03  0.139323D-02  0.000000D+00
     63  0.000000D+00  0.000000D+00  0.139323D-02 -0.222533D-02  0.000000D+00
     64 -0.264802D-02 -0.954967D-02  0.000000D+00  0.000000D+00  0.732580D-02
     65  0.370592D-05  0.000000D+00  0.000000D+00  0.000000D+00  0.000000D+00
     66  0.686632D-02  0.223367D-02  0.000000D+00  0.000000D+00 -0.126458D-02
     67  0.380488D+00  0.198407D+00  0.000000D+00  0.000000D+00  0.249209D+00
     68  0.414677D+00  0.371710D+00  0.000000D+00  0.000000D+00  0.588071D-01
     69  0.158641D-05  0.237607D-05  0.000000D+00  0.000000D+00 -0.309365D-05
     70  0.403378D-02  0.508408D-02  0.000000D+00  0.000000D+00 -0.411474D-02
     71  0.583151D-04  0.773754D-03  0.000000D+00  0.000000D+00 -0.138608D-03
     72  0.191959D-01  0.451395D-01  0.000000D+00  0.000000D+00 -0.502625D-02
               31            32            33            34            35 
     31  0.100000D+01
     32  0.658292D+00  0.100000D+01
     33  0.000000D+00  0.308243D-02  0.100000D+01
     34  0.433175D-03  0.327295D-01  0.219059D+00  0.100000D+01
     35  0.000000D+00  0.000000D+00  0.000000D+00  0.000000D+00  0.100000D+01
     36  0.105676D-02  0.379872D-01  0.000000D+00  0.000000D+00  0.000000D+00
     37 -0.463292D-03 -0.166539D-01  0.000000D+00  0.000000D+00  0.000000D+00
     38  0.195352D-01  0.116465D+00  0.184261D+00  0.812273D+00  0.000000D+00
     39  0.000000D+00  0.000000D+00  0.000000D+00  0.000000D+00  0.569754D+00
     40  0.600972D-01  0.218667D+00  0.000000D+00  0.000000D+00  0.000000D+00
     41 -0.263471D-01 -0.958651D-01  0.000000D+00  0.000000D+00  0.000000D+00
     42  0.486763D-04  0.187599D-01  0.791027D-01  0.710235D+00  0.000000D+00
     43  0.654761D-03  0.409615D-01  0.791027D-01  0.710235D+00  0.000000D+00
     44  0.165166D-03  0.230271D-01  0.791027D-01  0.710235D+00  0.000000D+00
     45  0.000000D+00  0.000000D+00  0.000000D+00  0.000000D+00  0.000000D+00
     46  0.000000D+00  0.000000D+00  0.000000D+00  0.000000D+00  0.000000D+00
     47 -0.460227D-03 -0.168586D-01  0.000000D+00  0.000000D+00  0.000000D+00
     48  0.531865D-03  0.355771D-01  0.334442D-01  0.276752D+00  0.000000D+00
[...]
  47         (A1)--V           1.367464          2.599984
  48         (B2)--V           1.367731          2.600166
  49         (A2)--V           1.370327          2.510629
  50         (B1)--V           1.370377          2.510323
  51         (A2)--V           1.712408          2.811059
  52         (A2)--V           1.712936          2.817264
  53         (B1)--V           1.713011          2.817333
  54         (A1)--V           1.868091          3.044231
  55         (A1)--V           1.897850          3.336273
  56         (B2)--V           1.898085          3.335981
  57         (B1)--V           2.010343          3.146921
  58         (B2)--V           2.150527          3.451980
  59         (A1)--V           2.151540          3.453462
  60         (A1)--V           2.201251          3.553743
  61         (B2)--V           2.209578          3.594228
  62         (B1)--V           2.419489          3.650829
  63         (A2)--V           2.420347          3.652004
  64         (B2)--V           2.428461          3.923510
  65         (A1)--V           2.428526          3.923039
  66         (A1)--V           2.600918          4.388991
  67         (B2)--V           2.958506          4.699745
  68         (A1)--V           2.959473          4.700361
  69         (A1)--V           4.067498         10.131459
  70         (A1)--V           4.157271         10.012901
  71         (B2)--V           4.157326         10.013219
  72         (A1)--V           4.493228         10.064412
 Total kinetic energy from orbitals= 1.543829107969D+02
                          Isotropic Fermi Contact Couplings
        Atom                 a.u.       MegaHertz       Gauss      10(-4) cm-1
     1  C(13)             -0.06222     -34.97597     -12.48030     -11.66673
     2  C(13)              0.08790      49.40634      17.62941      16.48018
     3  H(1)              -0.01265     -28.28057     -10.09121      -9.43338
     4  C(13)              0.08790      49.40634      17.62941      16.48018
     5  H(1)              -0.01265     -28.28057     -10.09121      -9.43338
     6  C(13)              0.08807      49.50153      17.66338      16.51193
     7  H(1)              -0.01266     -28.28504     -10.09281      -9.43488
     8  H(1)              -0.01266     -28.28504     -10.09281      -9.43488
     9  H(1)              -0.01267     -28.32095     -10.10562      -9.44685
    10  H(1)              -0.01267     -28.32095     -10.10562      -9.44685
 --------------------------------------------------------
       Center         ----  Spin Dipole Couplings  ----
                      3XX-RR        3YY-RR        3ZZ-RR
 --------------------------------------------------------
     1   Atom       -0.224656      0.112421      0.112235
     2   Atom        0.846371     -0.423116     -0.423256
     3   Atom       -0.009520     -0.050128      0.059648
     4   Atom        0.846371     -0.423116     -0.423256
     5   Atom       -0.009520     -0.050128      0.059648
     6   Atom        0.847356     -0.423927     -0.423428
     7   Atom       -0.009535      0.037766     -0.028231
     8   Atom       -0.009535      0.037766     -0.028231
     9   Atom       -0.009539      0.026784     -0.017245
    10   Atom       -0.009539      0.026784     -0.017245
 --------------------------------------------------------
                        XY            XZ            YZ
 --------------------------------------------------------
     1   Atom        0.000000      0.000000      0.000000
     2   Atom        0.000000      0.000000     -0.000159
     3   Atom        0.000000      0.000000     -0.006544
     4   Atom        0.000000      0.000000      0.000159
     5   Atom        0.000000      0.000000      0.006544
     6   Atom        0.000000      0.000000      0.000000
     7   Atom        0.000000      0.000000     -0.044302
     8   Atom        0.000000      0.000000      0.044302
     9   Atom        0.000000      0.000000     -0.050733
    10   Atom        0.000000      0.000000      0.050733
 --------------------------------------------------------


 ---------------------------------------------------------------------------------
              Anisotropic Spin Dipole Couplings in Principal Axis System
 ---------------------------------------------------------------------------------

       Atom             a.u.   MegaHertz   Gauss  10(-4) cm-1        Axes

              Baa    -0.2247   -30.147   -10.757   -10.056  1.0000  0.0000  0.0000
     1 C(13)  Bbb     0.1122    15.061     5.374     5.024  0.0000  0.0000  1.0000
              Bcc     0.1124    15.086     5.383     5.032  0.0000  1.0000  0.0000
 
              Baa    -0.4234   -56.811   -20.271   -18.950  0.0000  0.5466  0.8374
     2 C(13)  Bbb    -0.4230   -56.764   -20.255   -18.934  0.0000  0.8374 -0.5466
              Bcc     0.8464   113.575    40.526    37.885  1.0000  0.0000  0.0000
 
              Baa    -0.0505   -26.954    -9.618    -8.991  0.0000  0.9982  0.0593
     3 H(1)   Bbb    -0.0095    -5.079    -1.812    -1.694  1.0000  0.0000  0.0000
              Bcc     0.0600    32.033    11.430    10.685  0.0000 -0.0593  0.9982
 
              Baa    -0.4234   -56.811   -20.271   -18.950  0.0000 -0.5466  0.8374
     4 C(13)  Bbb    -0.4230   -56.764   -20.255   -18.934  0.0000  0.8374  0.5466
              Bcc     0.8464   113.575    40.526    37.885  1.0000  0.0000  0.0000
 
              Baa    -0.0505   -26.954    -9.618    -8.991  0.0000  0.9982 -0.0593
     5 H(1)   Bbb    -0.0095    -5.079    -1.812    -1.694  1.0000  0.0000  0.0000
              Bcc     0.0600    32.033    11.430    10.685  0.0000  0.0593  0.9982
 
              Baa    -0.4239   -56.887   -20.299   -18.975  0.0000  1.0000  0.0000
     6 C(13)  Bbb    -0.4234   -56.820   -20.275   -18.953  0.0000  0.0000  1.0000
              Bcc     0.8474   113.707    40.573    37.929  1.0000  0.0000  0.0000
 
              Baa    -0.0505   -26.930    -9.609    -8.983  0.0000  0.4487  0.8937
     7 H(1)   Bbb    -0.0095    -5.087    -1.815    -1.697  1.0000  0.0000  0.0000
              Bcc     0.0600    32.018    11.425    10.680  0.0000  0.8937 -0.4487
 
              Baa    -0.0505   -26.930    -9.609    -8.983  0.0000 -0.4487  0.8937
     8 H(1)   Bbb    -0.0095    -5.087    -1.815    -1.697  1.0000  0.0000  0.0000
              Bcc     0.0600    32.018    11.425    10.680  0.0000  0.8937  0.4487
 
              Baa    -0.0505   -26.963    -9.621    -8.994  0.0000  0.5486  0.8361
     9 H(1)   Bbb    -0.0095    -5.090    -1.816    -1.698  1.0000  0.0000  0.0000
              Bcc     0.0601    32.052    11.437    10.691  0.0000  0.8361 -0.5486
 
              Baa    -0.0505   -26.963    -9.621    -8.994  0.0000 -0.5486  0.8361
    10 H(1)   Bbb    -0.0095    -5.090    -1.816    -1.698  1.0000  0.0000  0.0000
              Bcc     0.0601    32.052    11.437    10.691  0.0000  0.8361  0.5486
 

 ---------------------------------------------------------------------------------

 Calling FoFJK, ICntrl=      2127 FMM=F ISym2X=1 I1Cent= 0 IOpClX= 1 NMat=1 NMatS=1 NMatT=0.
 ***** Axes restored to original set *****
 -------------------------------------------------------------------
 Center     Atomic                   Forces (Hartrees/Bohr)
 Number     Number              X              Y              Z
 -------------------------------------------------------------------
      1        6           0.000000000    0.000000000    0.000497885
      2        6           0.000000000    0.000201003   -0.000103220
      3        1           0.000000000   -0.000006309    0.000049252
      4        6           0.000000000   -0.000201003   -0.000103220
      5        1           0.000000000    0.000006309    0.000049252
      6        6           0.000000000    0.000000000   -0.000501386
      7        1           0.000000000    0.000136432   -0.000080586
      8        1           0.000000000   -0.000136432   -0.000080586
      9        1           0.000000000    0.000264685    0.000136305
     10        1           0.000000000   -0.000264685    0.000136305
 -------------------------------------------------------------------
 Cartesian Forces:  Max     0.000501386 RMS     0.000166714

 GradGradGradGradGradGradGradGradGradGradGradGradGradGradGradGradGradGrad
 Berny optimization.
 FormGI is forming the generalized inverse of G from B-inverse, IUseBI=4.
 Internal  Forces:  Max     0.000346520 RMS     0.000111135
 Search for a local minimum.
 Step number   1 out of a maximum of   43
 All quantities printed in internal units (Hartrees-Bohrs-Radians)
 Mixed Optimization -- En-DIIS/RFO-DIIS
 Second derivative matrix not updated -- first step.
 ITU=  0
     Eigenvalues ---    0.01881   0.01881   0.01888   0.01891   0.01891
     Eigenvalues ---    0.01891   0.01891   0.16000   0.16000   0.16000
     Eigenvalues ---    0.16000   0.16000   0.16000   0.25000   0.25000
     Eigenvalues ---    0.35361   0.35361   0.35366   0.35366   0.35379
     Eigenvalues ---    0.35379   0.43111   0.43229   0.43229
 RFO step:  Lambda=-1.78012396D-06 EMin= 1.88075736D-02
 Linear search not attempted -- first point.
 Iteration  1 RMS(Cart)=  0.00071588 RMS(Int)=  0.00000032
 Iteration  2 RMS(Cart)=  0.00000033 RMS(Int)=  0.00000000
 ClnCor:  largest displacement from symmetrization is 2.85D-11 for atom     4.
 Variable       Old X    -DE/DX   Delta X   Delta X   Delta X     New X
                                 (Linear)    (Quad)   (Total)
    R1        2.67389   0.00012   0.00000   0.00027   0.00027   2.67416
    R2        2.67389   0.00012   0.00000   0.00027   0.00027   2.67416
    R3        2.67533  -0.00023   0.00000  -0.00053  -0.00053   2.67480
    R4        2.05064  -0.00005   0.00000  -0.00014  -0.00014   2.05050
    R5        2.05092  -0.00016   0.00000  -0.00045  -0.00045   2.05047
    R6        2.05064  -0.00005   0.00000  -0.00014  -0.00014   2.05050
    R7        2.05092  -0.00016   0.00000  -0.00045  -0.00045   2.05047
    R8        2.05085  -0.00016   0.00000  -0.00044  -0.00044   2.05041
    R9        2.05085  -0.00016   0.00000  -0.00044  -0.00044   2.05041
    A1        2.09528  -0.00017   0.00000  -0.00068  -0.00068   2.09460
    A2        2.09395   0.00008   0.00000   0.00034   0.00034   2.09429
    A3        2.09395   0.00008   0.00000   0.00034   0.00034   2.09429
    A4        2.11536  -0.00001   0.00000  -0.00007  -0.00007   2.11530
    A5        2.11512   0.00001   0.00000   0.00006   0.00006   2.11518
    A6        2.05271   0.00000   0.00000   0.00000   0.00000   2.05271
    A7        2.11536  -0.00001   0.00000  -0.00007  -0.00007   2.11530
    A8        2.11512   0.00001   0.00000   0.00006   0.00006   2.11518
    A9        2.05271   0.00000   0.00000   0.00000   0.00000   2.05271
   A10        2.11368   0.00017   0.00000   0.00108   0.00108   2.11476
   A11        2.11368   0.00017   0.00000   0.00108   0.00108   2.11476
   A12        2.05583  -0.00035   0.00000  -0.00217  -0.00217   2.05366
    D1        0.00000   0.00000   0.00000   0.00000   0.00000   0.00000
    D2        3.14159   0.00000   0.00000   0.00000   0.00000   3.14159
    D3        3.14159   0.00000   0.00000   0.00000   0.00000   3.14159
    D4        0.00000   0.00000   0.00000   0.00000   0.00000   0.00000
    D5        0.00000   0.00000   0.00000   0.00000   0.00000   0.00000
    D6        3.14159   0.00000   0.00000   0.00000   0.00000   3.14159
    D7        3.14159   0.00000   0.00000   0.00000   0.00000   3.14159
    D8        0.00000   0.00000   0.00000   0.00000   0.00000   0.00000
    D9        3.14159   0.00000   0.00000   0.00000   0.00000   3.14159
   D10        0.00000   0.00000   0.00000   0.00000   0.00000   0.00000
   D11        0.00000   0.00000   0.00000   0.00000   0.00000   0.00000
   D12        3.14159   0.00000   0.00000   0.00000   0.00000   3.14159
         Item               Value     Threshold  Converged?
 Maximum Force            0.000347     0.000450     YES
 RMS     Force            0.000111     0.000300     YES
 Maximum Displacement     0.001683     0.001800     YES
 RMS     Displacement     0.000716     0.001200     YES
 Predicted change in Energy=-8.900620D-07
 Optimization completed.
    -- Stationary point found.
                           ----------------------------
                           !   Optimized Parameters   !
                           ! (Angstroms and Degrees)  !
 --------------------------                            --------------------------
 ! Name  Definition              Value          Derivative Info.                !
 --------------------------------------------------------------------------------
 ! R1    R(1,2)                  1.415          -DE/DX =    0.0001              !
 ! R2    R(1,4)                  1.415          -DE/DX =    0.0001              !
 ! R3    R(1,6)                  1.4157         -DE/DX =   -0.0002              !
 ! R4    R(2,3)                  1.0852         -DE/DX =    0.0                 !
 ! R5    R(2,8)                  1.0853         -DE/DX =   -0.0002              !
 ! R6    R(4,5)                  1.0852         -DE/DX =    0.0                 !
 ! R7    R(4,7)                  1.0853         -DE/DX =   -0.0002              !
 ! R8    R(6,9)                  1.0853         -DE/DX =   -0.0002              !
 ! R9    R(6,10)                 1.0853         -DE/DX =   -0.0002              !
 ! A1    A(2,1,4)              120.0509         -DE/DX =   -0.0002              !
 ! A2    A(2,1,6)              119.9746         -DE/DX =    0.0001              !
 ! A3    A(4,1,6)              119.9746         -DE/DX =    0.0001              !
 ! A4    A(1,2,3)              121.2013         -DE/DX =    0.0                 !
 ! A5    A(1,2,8)              121.1872         -DE/DX =    0.0                 !
 ! A6    A(3,2,8)              117.6114         -DE/DX =    0.0                 !
 ! A7    A(1,4,5)              121.2013         -DE/DX =    0.0                 !
 ! A8    A(1,4,7)              121.1872         -DE/DX =    0.0                 !
 ! A9    A(5,4,7)              117.6114         -DE/DX =    0.0                 !
 ! A10   A(1,6,9)              121.1049         -DE/DX =    0.0002              !
 ! A11   A(1,6,10)             121.1049         -DE/DX =    0.0002              !
 ! A12   A(9,6,10)             117.7902         -DE/DX =   -0.0003              !
 ! D1    D(4,1,2,3)              0.0            -DE/DX =    0.0                 !
 ! D2    D(4,1,2,8)            180.0            -DE/DX =    0.0                 !
 ! D3    D(6,1,2,3)            180.0            -DE/DX =    0.0                 !
 ! D4    D(6,1,2,8)              0.0            -DE/DX =    0.0                 !
 ! D5    D(2,1,4,5)              0.0            -DE/DX =    0.0                 !
 ! D6    D(2,1,4,7)            180.0            -DE/DX =    0.0                 !
 ! D7    D(6,1,4,5)            180.0            -DE/DX =    0.0                 !
 ! D8    D(6,1,4,7)              0.0            -DE/DX =    0.0                 !
 ! D9    D(2,1,6,9)            180.0            -DE/DX =    0.0                 !
 ! D10   D(2,1,6,10)             0.0            -DE/DX =    0.0                 !
 ! D11   D(4,1,6,9)              0.0            -DE/DX =    0.0                 !
 ! D12   D(4,1,6,10)           180.0            -DE/DX =    0.0                 !
 --------------------------------------------------------------------------------
 GradGradGradGradGradGradGradGradGradGradGradGradGradGradGradGradGradGrad

                          Input orientation:                          
 ---------------------------------------------------------------------
 Center     Atomic      Atomic             Coordinates (Angstroms)
 Number     Number       Type             X           Y           Z
 ---------------------------------------------------------------------
      1          6           0        0.000000    0.000000   -0.000443
      2          6           0        0.000000    1.225705   -0.707379
      3          1           0        0.000000    1.248937   -1.792281
      4          6           0        0.000000   -1.225705   -0.707379
      5          1           0        0.000000   -1.248937   -1.792281
      6          6           0        0.000000    0.000000    1.415281
      7          1           0        0.000000   -2.176412   -0.183898
      8          1           0        0.000000    2.176412   -0.183898
      9          1           0        0.000000   -0.929228    1.975936
     10          1           0        0.000000    0.929228    1.975936
 ---------------------------------------------------------------------
                    Distance matrix (angstroms):
                    1          2          3          4          5
     1  C    0.000000
     2  C    1.414960   0.000000
     3  H    2.184154   1.085151   0.000000
     4  C    1.414960   2.451410   2.702011   0.000000
     5  H    2.184154   2.702011   2.497874   1.085151   0.000000
     6  C    1.415724   2.451130   3.442136   2.451130   3.442136
     7  H    2.184130   3.442155   3.784166   1.085300   1.856638
     8  H    2.184130   1.085300   1.856638   3.442155   3.784166
     9  H    2.183927   3.441499   4.352455   2.699644   3.781755
    10  H    2.183927   2.699644   3.781755   3.441499   4.352455
                    6          7          8          9         10
     6  C    0.000000
     7  H    2.700767   0.000000
     8  H    2.700767   4.352824   0.000000
     9  H    1.085264   2.494063   3.782841   0.000000
    10  H    1.085264   3.782841   2.494063   1.858456   0.000000
 Stoichiometry    C4H6(3)
 Framework group  C2V[C2(CC),SGV(C2H6)]
 Deg. of freedom     9
 Full point group                 C2V     NOp   4
 Largest Abelian subgroup         C2V     NOp   4
 Largest concise Abelian subgroup C2      NOp   2
                         Standard orientation:                         
 ---------------------------------------------------------------------
 Center     Atomic      Atomic             Coordinates (Angstroms)
 Number     Number       Type             X           Y           Z
 ---------------------------------------------------------------------
      1          6           0        0.000000    0.000000   -0.000443
      2          6           0        0.000000    1.225705   -0.707379
      3          1           0        0.000000    1.248937   -1.792281
      4          6           0        0.000000   -1.225705   -0.707379
      5          1           0        0.000000   -1.248937   -1.792281
      6          6           0        0.000000    0.000000    1.415281
      7          1           0        0.000000   -2.176412   -0.183898
      8          1           0        0.000000    2.176412   -0.183898
      9          1           0        0.000000   -0.929228    1.975936
     10          1           0        0.000000    0.929228    1.975936
 ---------------------------------------------------------------------
 Rotational constants (GHZ):     10.0157919     10.0097495      5.0063849

 Test job not archived.
 1\1\GINC-NODE17\FOpt\UB3LYP\6-31G(d)\C4H6(3)\SHIXF21\03-Dec-2022\0\\# 
 opt ub3lyp/6-31g(d) pop=full gfinput iop(3/33=1)\\Title Card Required\
 \0,3\C,0.,0.,-0.000443\C,0.,1.225705,-0.707379\H,0.,1.248937,-1.792281
 \C,0.,-1.225705,-0.707379\H,0.,-1.248937,-1.792281\C,0.,0.,1.415281\H,
 0.,-2.176412,-0.183898\H,0.,2.176412,-0.183898\H,0.,-0.929228,1.975936
 \H,0.,0.929228,1.975936\\Version=ES64L-G09RevD.01\State=3-B2\HF=-155.9
 272448\S2=2.036236\S2-1=0.\S2A=2.000327\RMSD=5.987e-09\RMSF=1.667e-04\
 Dipole=0.,0.,-0.0003462\Quadrupole=-2.4189447,1.2138994,1.2050453,0.,0
 .,0.\PG=C02V [C2(C1C1),SGV(C2H6)]\\@


 Everything starts as somebody's daydream.
                           -- Larry Niven
 Job cpu time:       0 days  0 hours  8 minutes 33.9 seconds.
 File lengths (MBytes):  RWF=      6 Int=      0 D2E=      0 Chk=      2 Scr=      1
 Normal termination of Gaussian 09 at Sat Dec  3 08:51:35 2022.
