Title Card Required                                                     
FOpt      UB3LYP                                                      6-31G(d)            
Number of atoms                            I               10
Info1-9                                    I   N=           9
          17          17           0           0           0         110
           2          18        -502
Full Title                                 C   N=           2
Title Card Required     
Route                                      C   N=           4
# opt b3lyp/6-31g(d) pop=full gfinput           
Charge                                     I                0
Multiplicity                               I                3
Number of electrons                        I               30
Number of alpha electrons                  I               16
Number of beta electrons                   I               14
Number of basis functions                  I               72
Number of independent functions            I               72
Number of point charges in /Mol/           I                0
Number of translation vectors              I                0
Atomic numbers                             I   N=          10
           6           6           1           6           1           6
           1           1           1           1
Nuclear charges                            R   N=          10
  6.00000000E+00  6.00000000E+00  1.00000000E+00  6.00000000E+00  1.00000000E+00
  6.00000000E+00  1.00000000E+00  1.00000000E+00  1.00000000E+00  1.00000000E+00
Current cartesian coordinates              R   N=          30
  5.13523889E-33 -6.42171377E-33 -8.36395060E-04  1.47787767E-30  2.31624758E+00
 -1.33675253E+00  1.32684713E-30  2.36014839E+00 -3.38691941E+00 -2.83658519E-16
 -2.31624758E+00 -1.33675253E+00 -2.89034817E-16 -2.36014839E+00 -3.38691941E+00
  2.53332277E-31  1.00828991E-30  2.67449427E+00 -2.14421650E-30 -4.11282227E+00
 -3.47517131E-01  5.03675463E-16  4.11282227E+00 -3.47517131E-01 -6.26019230E-31
 -1.75598625E+00  3.73397807E+00  2.15046293E-16  1.75598625E+00  3.73397807E+00
Number of symbols in /Mol/                 I                0
Int Atom Types                             I   N=          10
           0           0           0           0           0           0
           0           0           0           0
Force Field                                I                0
Atom Types                                 C   N=          10
                                                            
                                                            
MM charges                                 R   N=          10
  0.00000000E+00  0.00000000E+00  0.00000000E+00  0.00000000E+00  0.00000000E+00
  0.00000000E+00  0.00000000E+00  0.00000000E+00  0.00000000E+00  0.00000000E+00
Integer atomic weights                     I   N=          10
          12          12           1          12           1          12
           1           1           1           1
Real atomic weights                        R   N=          10
  1.20000000E+01  1.20000000E+01  1.00782504E+00  1.20000000E+01  1.00782504E+00
  1.20000000E+01  1.00782504E+00  1.00782504E+00  1.00782504E+00  1.00782504E+00
Atom fragment info                         I   N=          10
           0           0           0           0           0           0
           0           0           0           0
Atom residue num                           I   N=          10
           0           0           0           0           0           0
           0           0           0           0
Nuclear spins                              I   N=          10
           0           0           1           0           1           0
           1           1           1           1
Nuclear ZEff                               R   N=          10
 -3.60000000E+00 -3.60000000E+00 -1.00000000E+00 -3.60000000E+00 -1.00000000E+00
 -3.60000000E+00 -1.00000000E+00 -1.00000000E+00 -1.00000000E+00 -1.00000000E+00
Nuclear ZNuc                               R   N=          10
  6.00000000E+00  6.00000000E+00  1.00000000E+00  6.00000000E+00  1.00000000E+00
  6.00000000E+00  1.00000000E+00  1.00000000E+00  1.00000000E+00  1.00000000E+00
Nuclear QMom                               R   N=          10
  0.00000000E+00  0.00000000E+00  0.00000000E+00  0.00000000E+00  0.00000000E+00
  0.00000000E+00  0.00000000E+00  0.00000000E+00  0.00000000E+00  0.00000000E+00
Nuclear GFac                               R   N=          10
  0.00000000E+00  0.00000000E+00  2.79284600E+00  0.00000000E+00  2.79284600E+00
  0.00000000E+00  2.79284600E+00  2.79284600E+00  2.79284600E+00  2.79284600E+00
MicOpt                                     I   N=          10
          -1          -1          -1          -1          -1          -1
          -1          -1          -1          -1
Number of residues                         I                0
Number of secondary structures             I                0
Redundant internal dimensions              I   N=           4
          33           9          12          12
Redundant internal coordinate indices      I   N=         132
           1           2           0           0           1           4
           0           0           1           6           0           0
           2           3           0           0           2           8
           0           0           4           5           0           0
           4           7           0           0           6           9
           0           0           6          10           0           0
           2           1           4           0           2           1
           6           0           4           1           6           0
           1           2           3           0           1           2
           8           0           3           2           8           0
           1           4           5           0           1           4
           7           0           5           4           7           0
           1           6           9           0           1           6
          10           0           9           6          10           0
           4           1           2           3           4           1
           2           8           6           1           2           3
           6           1           2           8           2           1
           4           5           2           1           4           7
           6           1           4           5           6           1
           4           7           2           1           6           9
           2           1           6          10           4           1
           6           9           4           1           6          10
Redundant internal coordinates             R   N=          33
  2.67388757E+00  2.67388757E+00  2.67533067E+00  2.05063686E+00  2.05091864E+00
  2.05063686E+00  2.05091864E+00  2.05085192E+00  2.05085192E+00  2.09528256E+00
  2.09395137E+00  2.09395137E+00  2.11536139E+00  2.11511619E+00  2.05270773E+00
  2.11536139E+00  2.11511619E+00  2.05270773E+00  2.11367939E+00  2.11367939E+00
  2.05582653E+00 -0.00000000E+00  3.14159265E+00  3.14159265E+00  0.00000000E+00
  0.00000000E+00  3.14159265E+00  3.14159265E+00 -0.00000000E+00  3.14159265E+00
 -0.00000000E+00  0.00000000E+00  3.14159265E+00
ZRed-IntVec                                I   N=          33
           0           0           0           0           0           0
           0           0           0           0           0           0
           0           0           0           0           0           0
           0           0           0           0           0           0
           0           0           0           0           0           0
           0           0           0
ZRed-FPVec                                 R   N=          33
  0.00000000E+00  0.00000000E+00  0.00000000E+00  0.00000000E+00  0.00000000E+00
  0.00000000E+00  0.00000000E+00  0.00000000E+00  0.00000000E+00  0.00000000E+00
  0.00000000E+00  0.00000000E+00  0.00000000E+00  0.00000000E+00  0.00000000E+00
  0.00000000E+00  0.00000000E+00  0.00000000E+00  0.00000000E+00  0.00000000E+00
  0.00000000E+00  0.00000000E+00  0.00000000E+00  0.00000000E+00  0.00000000E+00
  0.00000000E+00  0.00000000E+00  0.00000000E+00  0.00000000E+00  0.00000000E+00
  0.00000000E+00  0.00000000E+00  0.00000000E+00
ZRed-Constraint1                           R   N=          33
  2.64826219E+00  2.64826219E+00  2.91017823E+00  2.02200695E+00  1.84002633E+00
  2.02200695E+00  1.84002633E+00  1.84002633E+00  1.84002633E+00  2.09439510E+00
  2.09439510E+00  2.09439510E+00  2.09439510E+00  2.09439510E+00  2.09439510E+00
  2.09439510E+00  2.09439510E+00  2.09439510E+00  2.09439510E+00  2.09439510E+00
  2.09439511E+00  0.00000000E+00  3.14159265E+00  3.14159265E+00  0.00000000E+00
  0.00000000E+00  3.14159265E+00  3.14159265E+00  0.00000000E+00  3.14159265E+00
  0.00000000E+00  0.00000000E+00  3.14159265E+00
ZRed-Constraint2                           R   N=          33
  0.00000000E+00  0.00000000E+00  0.00000000E+00  0.00000000E+00  0.00000000E+00
  0.00000000E+00  0.00000000E+00  0.00000000E+00  0.00000000E+00  0.00000000E+00
  0.00000000E+00  0.00000000E+00  0.00000000E+00  0.00000000E+00  0.00000000E+00
  0.00000000E+00  0.00000000E+00  0.00000000E+00  0.00000000E+00  0.00000000E+00
  0.00000000E+00  0.00000000E+00  0.00000000E+00  0.00000000E+00  0.00000000E+00
  0.00000000E+00  0.00000000E+00  0.00000000E+00  0.00000000E+00  0.00000000E+00
  0.00000000E+00  0.00000000E+00  0.00000000E+00
SymInf integers                            I   N=          26
           2           4           1           1           1          -1
          -1           1          -1           1           1           1
          -1           1           0           0           0           0
           0           0           0           0           0           0
           0           0
RotTr to input orientation                 R   N=          12
 -9.36751332E-16  1.00000000E+00 -1.99323698E-16  1.00000000E+00  9.36751332E-16
  2.30736655E-15  2.30736655E-15 -1.99323698E-16 -1.00000000E+00  8.88178420E-17
 -2.09491411E-16  1.54571364E-02
Number of contracted shells                I               28
Number of primitive shells                 I               68
Pure/Cartesian d shells                    I                1
Pure/Cartesian f shells                    I                0
Highest angular momentum                   I                2
Largest degree of contraction              I                6
Shell types                                I   N=          28
           0          -1          -1           2           0          -1
          -1           2           0           0           0          -1
          -1           2           0           0           0          -1
          -1           2           0           0           0           0
           0           0           0           0
Number of primitives per shell             I   N=          28
           6           3           1           1           6           3
           1           1           3           1           6           3
           1           1           3           1           6           3
           1           1           3           1           3           1
           3           1           3           1
Shell to atom map                          I   N=          28
           1           1           1           1           2           2
           2           2           3           3           4           4
           4           4           5           5           6           6
           6           6           7           7           8           8
           9           9          10          10
Primitive exponents                        R   N=          68
  3.04752488E+03  4.57369518E+02  1.03948685E+02  2.92101553E+01  9.28666296E+00
  3.16392696E+00  7.86827235E+00  1.88128854E+00  5.44249258E-01  1.68714478E-01
  8.00000000E-01  3.04752488E+03  4.57369518E+02  1.03948685E+02  2.92101553E+01
  9.28666296E+00  3.16392696E+00  7.86827235E+00  1.88128854E+00  5.44249258E-01
  1.68714478E-01  8.00000000E-01  1.87311370E+01  2.82539436E+00  6.40121692E-01
  1.61277759E-01  3.04752488E+03  4.57369518E+02  1.03948685E+02  2.92101553E+01
  9.28666296E+00  3.16392696E+00  7.86827235E+00  1.88128854E+00  5.44249258E-01
  1.68714478E-01  8.00000000E-01  1.87311370E+01  2.82539436E+00  6.40121692E-01
  1.61277759E-01  3.04752488E+03  4.57369518E+02  1.03948685E+02  2.92101553E+01
  9.28666296E+00  3.16392696E+00  7.86827235E+00  1.88128854E+00  5.44249258E-01
  1.68714478E-01  8.00000000E-01  1.87311370E+01  2.82539436E+00  6.40121692E-01
  1.61277759E-01  1.87311370E+01  2.82539436E+00  6.40121692E-01  1.61277759E-01
  1.87311370E+01  2.82539436E+00  6.40121692E-01  1.61277759E-01  1.87311370E+01
  2.82539436E+00  6.40121692E-01  1.61277759E-01
Contraction coefficients                   R   N=          68
  1.83473713E-03  1.40373228E-02  6.88426223E-02  2.32184443E-01  4.67941348E-01
  3.62311985E-01 -1.19332420E-01 -1.60854152E-01  1.14345644E+00  1.00000000E+00
  1.00000000E+00  1.83473713E-03  1.40373228E-02  6.88426223E-02  2.32184443E-01
  4.67941348E-01  3.62311985E-01 -1.19332420E-01 -1.60854152E-01  1.14345644E+00
  1.00000000E+00  1.00000000E+00  3.34946043E-02  2.34726953E-01  8.13757326E-01
  1.00000000E+00  1.83473713E-03  1.40373228E-02  6.88426223E-02  2.32184443E-01
  4.67941348E-01  3.62311985E-01 -1.19332420E-01 -1.60854152E-01  1.14345644E+00
  1.00000000E+00  1.00000000E+00  3.34946043E-02  2.34726953E-01  8.13757326E-01
  1.00000000E+00  1.83473713E-03  1.40373228E-02  6.88426223E-02  2.32184443E-01
  4.67941348E-01  3.62311985E-01 -1.19332420E-01 -1.60854152E-01  1.14345644E+00
  1.00000000E+00  1.00000000E+00  3.34946043E-02  2.34726953E-01  8.13757326E-01
  1.00000000E+00  3.34946043E-02  2.34726953E-01  8.13757326E-01  1.00000000E+00
  3.34946043E-02  2.34726953E-01  8.13757326E-01  1.00000000E+00  3.34946043E-02
  2.34726953E-01  8.13757326E-01  1.00000000E+00
P(S=P) Contraction coefficients            R   N=          68
  0.00000000E+00  0.00000000E+00  0.00000000E+00  0.00000000E+00  0.00000000E+00
  0.00000000E+00  6.89990666E-02  3.16423961E-01  7.44308291E-01  1.00000000E+00
  0.00000000E+00  0.00000000E+00  0.00000000E+00  0.00000000E+00  0.00000000E+00
  0.00000000E+00  0.00000000E+00  6.89990666E-02  3.16423961E-01  7.44308291E-01
  1.00000000E+00  0.00000000E+00  0.00000000E+00  0.00000000E+00  0.00000000E+00
  0.00000000E+00  0.00000000E+00  0.00000000E+00  0.00000000E+00  0.00000000E+00
  0.00000000E+00  0.00000000E+00  6.89990666E-02  3.16423961E-01  7.44308291E-01
  1.00000000E+00  0.00000000E+00  0.00000000E+00  0.00000000E+00  0.00000000E+00
  0.00000000E+00  0.00000000E+00  0.00000000E+00  0.00000000E+00  0.00000000E+00
  0.00000000E+00  0.00000000E+00  6.89990666E-02  3.16423961E-01  7.44308291E-01
  1.00000000E+00  0.00000000E+00  0.00000000E+00  0.00000000E+00  0.00000000E+00
  0.00000000E+00  0.00000000E+00  0.00000000E+00  0.00000000E+00  0.00000000E+00
  0.00000000E+00  0.00000000E+00  0.00000000E+00  0.00000000E+00  0.00000000E+00
  0.00000000E+00  0.00000000E+00  0.00000000E+00
Coordinates of each shell                  R   N=          84
  1.40993865E-33 -3.70790164E-33 -8.36395059E-04  1.40993865E-33 -3.70790164E-33
 -8.36395059E-04  1.40993865E-33 -3.70790164E-33 -8.36395059E-04  1.40993865E-33
 -3.70790164E-33 -8.36395059E-04  2.18596214E-31  2.31624758E+00 -1.33675253E+00
  2.18596214E-31  2.31624758E+00 -1.33675253E+00  2.18596214E-31  2.31624758E+00
 -1.33675253E+00  2.18596214E-31  2.31624758E+00 -1.33675253E+00 -9.59431988E-32
  2.36014839E+00 -3.38691941E+00 -9.59431988E-32  2.36014839E+00 -3.38691941E+00
 -2.83658519E-16 -2.31624758E+00 -1.33675253E+00 -2.83658519E-16 -2.31624758E+00
 -1.33675253E+00 -2.83658519E-16 -2.31624758E+00 -1.33675253E+00 -2.83658519E-16
 -2.31624758E+00 -1.33675253E+00 -2.89034817E-16 -2.36014839E+00 -3.38691941E+00
 -2.89034817E-16 -2.36014839E+00 -3.38691941E+00 -1.79137610E-31 -4.43071355E-30
  2.67449427E+00 -1.79137610E-31 -4.43071355E-30  2.67449427E+00 -1.79137610E-31
 -4.43071355E-30  2.67449427E+00 -1.79137610E-31 -4.43071355E-30  2.67449427E+00
  1.37145626E-31 -4.11282227E+00 -3.47517131E-01  1.37145626E-31 -4.11282227E+00
 -3.47517131E-01  5.03675463E-16  4.11282227E+00 -3.47517131E-01  5.03675463E-16
  4.11282227E+00 -3.47517131E-01 -1.34822319E-31 -1.75598625E+00  3.73397807E+00
 -1.34822319E-31 -1.75598625E+00  3.73397807E+00  2.15046293E-16  1.75598625E+00
  3.73397807E+00  2.15046293E-16  1.75598625E+00  3.73397807E+00
Num ILSW                                   I              100
ILSW                                       I   N=         100
           1           1           0           1           2           0
           0           0           0           0         402          -1
           5           0           0           0           2           0
           0           0           1           0           1           0
           1           0           0           0           0           0
           0           0      100000           0          -1           0
           0           0           0           0           0           0
           0           0           0           1           0           0
           0 -2000000000           1           0           0           0
           0           0           4          52           0           0
           0           0           5           0           0           0
           0           0           0           0           0           1
           0           0           0           0           0           0
           0           0           0           0           0           0
           0           0           0           0           0           0
           0           0           0           0           0           0
           0           0           0           0
Num RLSW                                   I               52
RLSW                                       R   N=          52
  8.00000000E-01  7.20000000E-01  1.00000000E+00  8.10000000E-01  2.00000000E-01
  0.00000000E+00  0.00000000E+00  1.00000000E+00  0.00000000E+00  0.00000000E+00
  0.00000000E+00  0.00000000E+00  1.00000000E+00  0.00000000E+00  0.00000000E+00
  0.00000000E+00  0.00000000E+00  1.00000000E+00  0.00000000E+00  0.00000000E+00
  0.00000000E+00  0.00000000E+00  1.00000000E+00  0.00000000E+00  0.00000000E+00
  0.00000000E+00  0.00000000E+00  1.00000000E+00  0.00000000E+00  0.00000000E+00
  0.00000000E+00  0.00000000E+00  1.00000000E+00  0.00000000E+00  0.00000000E+00
  0.00000000E+00  0.00000000E+00  0.00000000E+00  1.00000000E+00  1.00000000E+00
  0.00000000E+00  1.00000000E+00  0.00000000E+00  0.00000000E+00  0.00000000E+00
  0.00000000E+00  0.00000000E+00  0.00000000E+00  0.00000000E+00  0.00000000E+00
  0.00000000E+00  0.00000000E+00
MxBond                                     I                3
NBond                                      I   N=          10
           3           3           1           3           1           3
           1           1           1           1
IBond                                      I   N=          30
           2           4           6           1           3           8
           2           0           0           1           5           7
           4           0           0           1           9          10
           4           0           0           2           0           0
           6           0           0           6           0           0
RBond                                      R   N=          30
  1.50000000E+00  1.50000000E+00  1.00000000E+00  1.50000000E+00  1.00000000E+00
  1.00000000E+00  1.00000000E+00  0.00000000E+00  0.00000000E+00  1.50000000E+00
  1.00000000E+00  1.00000000E+00  1.00000000E+00  0.00000000E+00  0.00000000E+00
  1.00000000E+00  1.00000000E+00  1.00000000E+00  1.00000000E+00  0.00000000E+00
  0.00000000E+00  1.00000000E+00  0.00000000E+00  0.00000000E+00  1.00000000E+00
  0.00000000E+00  0.00000000E+00  1.00000000E+00  0.00000000E+00  0.00000000E+00
Virial Ratio                               R      2.010003300780776E+00
SCF Energy                                 R     -1.559272453355720E+02
Total Energy                               R     -1.559272453355720E+02
S**2                                       R      2.036236204663117E+00
S**2 after annihilation                    R      2.000326612275153E+00
RMS Force                                  R      1.593819614409336E-04
RMS Density                                R      2.153403901466884E-09
Job Status                                 I                1
Nuclear derivative order                   I                1
External E-field                           R   N=          35
  0.00000000E+00  0.00000000E+00  0.00000000E+00  0.00000000E+00  0.00000000E+00
  0.00000000E+00  0.00000000E+00  0.00000000E+00  0.00000000E+00  0.00000000E+00
  0.00000000E+00  0.00000000E+00  0.00000000E+00  0.00000000E+00  0.00000000E+00
  0.00000000E+00  0.00000000E+00  0.00000000E+00  0.00000000E+00  0.00000000E+00
  0.00000000E+00  0.00000000E+00  0.00000000E+00  0.00000000E+00  0.00000000E+00
  0.00000000E+00  0.00000000E+00  0.00000000E+00  0.00000000E+00  0.00000000E+00
  0.00000000E+00  0.00000000E+00  0.00000000E+00  0.00000000E+00  0.00000000E+00
IOpCl                                      I                1
IROHF                                      I                0
Alpha Orbital Energies                     R   N=          72
 -1.01992301E+01 -1.01911348E+01 -1.01911003E+01 -1.01910743E+01 -8.14687645E-01
 -6.80508261E-01 -6.80383223E-01 -5.30543545E-01 -4.63352883E-01 -4.63148359E-01
 -3.88303897E-01 -3.74129407E-01 -3.73782768E-01 -3.47354862E-01 -2.03144307E-01
 -2.03134309E-01  7.81653488E-02  9.95054944E-02  1.53113774E-01  1.53140246E-01
  1.58766487E-01  1.58815110E-01  2.25958363E-01  2.52717382E-01  3.67187863E-01
  3.67478366E-01  5.04158499E-01  5.13875345E-01  5.14134599E-01  5.71080663E-01
  5.83754592E-01  5.83771732E-01  6.21786787E-01  6.48552486E-01  6.48811201E-01
  7.26558174E-01  8.28908489E-01  8.28924892E-01  8.65210756E-01  9.07547487E-01
  9.48746239E-01  9.48993157E-01  1.00792414E+00  1.00809436E+00  1.13663350E+00
  1.16052957E+00  1.34464417E+00  1.34469530E+00  1.36318192E+00  1.36345085E+00
  1.65759017E+00  1.65878758E+00  1.65889191E+00  1.82962016E+00  1.88913628E+00
  1.88941782E+00  1.96259691E+00  2.10749863E+00  2.10850953E+00  2.19386021E+00
  2.20059842E+00  2.39873469E+00  2.39961224E+00  2.40352096E+00  2.40357672E+00
  2.59086208E+00  2.95508351E+00  2.95604458E+00  4.05219607E+00  4.12879689E+00
  4.12887424E+00  4.48629001E+00
Beta Orbital Energies                      R   N=          72
 -1.02034276E+01 -1.01800673E+01 -1.01800410E+01 -1.01800357E+01 -7.99741430E-01
 -6.50436342E-01 -6.50286311E-01 -5.20257918E-01 -4.55402342E-01 -4.55195310E-01
 -3.81083063E-01 -3.67111884E-01 -3.66762217E-01 -3.04064552E-01 -5.78418457E-02
 -5.77449416E-02  1.09567592E-01  1.12285624E-01  1.58527444E-01  1.58547097E-01
  1.70016474E-01  1.70040553E-01  2.31046781E-01  2.58037809E-01  3.71550836E-01
  3.71845848E-01  5.18588630E-01  5.18840984E-01  5.57816809E-01  5.77297419E-01
  6.36380387E-01  6.40040805E-01  6.40105879E-01  6.63212232E-01  6.63489412E-01
  7.22960376E-01  8.38742877E-01  8.38744319E-01  8.70021553E-01  9.19745375E-01
  9.58256559E-01  9.58470057E-01  1.02968149E+00  1.02982642E+00  1.14710485E+00
  1.16929598E+00  1.36745488E+00  1.36772837E+00  1.37032629E+00  1.37037669E+00
  1.71240837E+00  1.71293669E+00  1.71301049E+00  1.86808964E+00  1.89784541E+00
  1.89808265E+00  2.01034413E+00  2.15052661E+00  2.15154087E+00  2.20124915E+00
  2.20957796E+00  2.41948784E+00  2.42034596E+00  2.42846033E+00  2.42852230E+00
  2.60091788E+00  2.95850343E+00  2.95947012E+00  4.06749406E+00  4.15726858E+00
  4.15732431E+00  4.49322493E+00
Alpha MO coefficients                      R   N=        5184
  9.91617245E-01  4.87299880E-02  0.00000000E+00  0.00000000E+00 -1.65460890E-06
 -1.57199785E-02  0.00000000E+00  0.00000000E+00  2.27035362E-06 -9.36381620E-03
 -8.77267385E-03 -8.77588996E-03  0.00000000E+00  0.00000000E+00  0.00000000E+00
  2.89107319E-02  1.16138794E-03  0.00000000E+00  3.04839220E-04 -1.75830439E-04
  3.93373476E-03  0.00000000E+00 -1.38600869E-03  7.97782341E-04 -3.85915463E-04
 -7.33798214E-04 -5.64022921E-04  0.00000000E+00  0.00000000E+00  1.70021360E-04
 -9.17944197E-05 -1.05204859E-04  2.89107319E-02  1.16138794E-03  0.00000000E+00
 -3.04839220E-04 -1.75830439E-04  3.93373476E-03  0.00000000E+00  1.38600869E-03
  7.97782341E-04 -3.85915463E-04 -7.33798214E-04 -5.64022921E-04  0.00000000E+00
  0.00000000E+00 -1.70021360E-04 -9.17944197E-05 -1.05204859E-04  2.89040117E-02
  1.16257700E-03  0.00000000E+00  0.00000000E+00  3.50398786E-04  3.92809042E-03
  0.00000000E+00  0.00000000E+00 -1.59677609E-03 -3.85860221E-04 -4.78617956E-04
 -8.18869871E-04  0.00000000E+00  0.00000000E+00  0.00000000E+00 -9.16623109E-05
 -1.04085624E-04 -9.16623109E-05 -1.04085624E-04 -9.17903857E-05 -1.05265147E-04
 -9.17903857E-05 -1.05265147E-04 -1.72904912E-02 -1.01899900E-03  0.00000000E+00
  0.00000000E+00 -3.70982122E-04  2.29893177E-03  0.00000000E+00  0.00000000E+00
  2.47921093E-03  8.46946829E-05  4.41969520E-05 -1.26041542E-04  0.00000000E+00
  0.00000000E+00  0.00000000E+00 -1.85474503E-01 -9.57179438E-03  0.00000000E+00
 -9.75306358E-06 -7.64944727E-05  2.57907174E-03  0.00000000E+00 -3.07164780E-04
  3.32088995E-04  1.76791666E-03  1.91495864E-03  1.89580495E-03  0.00000000E+00
  0.00000000E+00 -2.59464340E-05  6.51260208E-05 -1.98670014E-04 -1.85474503E-01
 -9.57179438E-03  0.00000000E+00  9.75306358E-06 -7.64944727E-05  2.57907174E-03
  0.00000000E+00  3.07164780E-04  3.32088995E-04  1.76791666E-03  1.91495864E-03
  1.89580495E-03  0.00000000E+00  0.00000000E+00  2.59464340E-05  6.51260208E-05
 -1.98670014E-04  9.57101083E-01  4.87915483E-02  0.00000000E+00  0.00000000E+00
 -9.71416281E-05 -1.24542403E-02  0.00000000E+00  0.00000000E+00  1.20392584E-03
 -9.40052173E-03 -9.64956665E-03 -9.59948414E-03  0.00000000E+00  0.00000000E+00
  0.00000000E+00  6.71445771E-06 -4.47052322E-04  6.71445771E-06 -4.47052322E-04
 -2.57526450E-04  1.98866301E-03 -2.57526450E-04  1.98866301E-03  0.00000000E+00
  0.00000000E+00  0.00000000E+00 -3.95742721E-04  0.00000000E+00  0.00000000E+00
  0.00000000E+00  2.62916563E-03  0.00000000E+00  0.00000000E+00  0.00000000E+00
  0.00000000E+00  0.00000000E+00  0.00000000E+00  1.04463179E-04  7.01837305E-01
  3.58506245E-02  0.00000000E+00 -8.95097264E-05  1.34216496E-06 -9.22910292E-03
  0.00000000E+00  9.06715062E-04 -4.27445821E-04 -6.86147391E-03 -7.08316032E-03
 -7.08121831E-03  0.00000000E+00  0.00000000E+00 -2.83107573E-06 -1.62356632E-04
  1.49644683E-03 -7.01837305E-01 -3.58506245E-02  0.00000000E+00 -8.95097264E-05
 -1.34216496E-06  9.22910292E-03  0.00000000E+00  9.06715062E-04  4.27445821E-04
  6.86147391E-03  7.08316032E-03  7.08121831E-03  0.00000000E+00  0.00000000E+00
 -2.83107573E-06  1.62356632E-04 -1.49644683E-03  0.00000000E+00  0.00000000E+00
  0.00000000E+00 -8.75174312E-05  0.00000000E+00  0.00000000E+00  0.00000000E+00
  1.70210994E-04  0.00000000E+00  0.00000000E+00  0.00000000E+00  0.00000000E+00
  0.00000000E+00  0.00000000E+00 -4.50328222E-06  1.98184855E-04 -1.34390305E-03
 -1.98184855E-04  1.34390305E-03  3.64594214E-05  1.54399907E-04 -3.64594214E-05
 -1.54399907E-04 -4.76191815E-02 -2.80774055E-03  0.00000000E+00  0.00000000E+00
  1.35574120E-04  6.32309352E-03  0.00000000E+00  0.00000000E+00 -8.98773807E-04
  2.33741930E-04 -1.43986614E-04 -8.15789932E-05  0.00000000E+00  0.00000000E+00
  0.00000000E+00  6.76234463E-01  3.42753276E-02  0.00000000E+00 -3.05612435E-05
  4.76228436E-05 -8.51524266E-03  0.00000000E+00  4.11481453E-04 -2.93989571E-04
 -6.73555105E-03 -6.69507713E-03 -6.76656444E-03  0.00000000E+00  0.00000000E+00
 -6.92464314E-05 -2.16546907E-04  1.46841310E-03  6.76234463E-01  3.42753276E-02
  0.00000000E+00  3.05612435E-05  4.76228436E-05 -8.51524266E-03  0.00000000E+00
 -4.11481453E-04 -2.93989571E-04 -6.73555105E-03 -6.69507713E-03 -6.76656444E-03
  0.00000000E+00  0.00000000E+00  6.92464314E-05 -2.16546907E-04  1.46841310E-03
  2.61205422E-01  1.30741651E-02  0.00000000E+00  0.00000000E+00 -3.82640402E-06
 -3.05402214E-03  0.00000000E+00  0.00000000E+00 -8.71154685E-05 -2.67773128E-03
 -2.61112044E-03 -2.47475796E-03  0.00000000E+00  0.00000000E+00  0.00000000E+00
 -1.94945668E-04  1.55812543E-03 -1.94945668E-04  1.55812543E-03 -9.93582767E-05
  6.73109150E-04 -9.93582767E-05  6.73109150E-04 -1.57900455E-01  3.11629786E-01
  0.00000000E+00  0.00000000E+00 -1.08132087E-04  1.63480668E-01  0.00000000E+00
  0.00000000E+00  5.78200453E-05 -1.76170790E-02  1.49082719E-03  1.46204027E-03
  0.00000000E+00  0.00000000E+00  0.00000000E+00 -9.66614824E-02  1.86596689E-01
  0.00000000E+00 -6.71518225E-02  3.87382157E-02  1.48446389E-01  0.00000000E+00
 -1.17026892E-02  6.73653022E-03 -6.74221520E-03  5.34211818E-03  5.68907649E-04
  0.00000000E+00  0.00000000E+00 -4.76471637E-03  4.44980046E-02  5.91276621E-03
 -9.66614824E-02  1.86596689E-01  0.00000000E+00  6.71518225E-02  3.87382157E-02
  1.48446389E-01  0.00000000E+00  1.17026892E-02  6.73653022E-03 -6.74221520E-03
  5.34211818E-03  5.68907649E-04  0.00000000E+00  0.00000000E+00  4.76471637E-03
  4.44980046E-02  5.91276621E-03 -9.65494202E-02  1.86381212E-01  0.00000000E+00
  0.00000000E+00 -7.74363196E-02  1.48252152E-01  0.00000000E+00  0.00000000E+00
 -1.35127701E-02 -6.73196092E-03 -1.78318608E-03  7.70836143E-03  0.00000000E+00
  0.00000000E+00  0.00000000E+00  4.45029358E-02  5.93187833E-03  4.45029358E-02