 Entering Gaussian System, Link 0=g16
 Input=C[CH2]3.gjf
 Output=C[CH2]3.log
 Initial command:
 /home/fly/software/gaussian/g16/l1.exe "/home/fly/software/gaussian/scr/Gau-341.inp" -scrdir="/home/fly/software/gaussian/scr/"
 Entering Link 1 = /home/fly/software/gaussian/g16/l1.exe PID=       343.
  
 Copyright (c) 1988-2021, Gaussian, Inc.  All Rights Reserved.
  
 This is part of the Gaussian(R) 16 program.  It is based on
 the Gaussian(R) 09 system (copyright 2009, Gaussian, Inc.),
 the Gaussian(R) 03 system (copyright 2003, Gaussian, Inc.),
 the Gaussian(R) 98 system (copyright 1998, Gaussian, Inc.),
 the Gaussian(R) 94 system (copyright 1995, Gaussian, Inc.),
 the Gaussian 92(TM) system (copyright 1992, Gaussian, Inc.),
 the Gaussian 90(TM) system (copyright 1990, Gaussian, Inc.),
 the Gaussian 88(TM) system (copyright 1988, Gaussian, Inc.),
 the Gaussian 86(TM) system (copyright 1986, Carnegie Mellon
 University), and the Gaussian 82(TM) system (copyright 1983,
 Carnegie Mellon University). Gaussian is a federally registered
 trademark of Gaussian, Inc.
  
 This software contains proprietary and confidential information,
 including trade secrets, belonging to Gaussian, Inc.
  
 This software is provided under written license and may be
 used, copied, transmitted, or stored only in accord with that
 written license.
  
 The following legend is applicable only to US Government
 contracts under FAR:
  
                    RESTRICTED RIGHTS LEGEND
  
 Use, reproduction and disclosure by the US Government is
 subject to restrictions as set forth in subparagraphs (a)
 and (c) of the Commercial Computer Software - Restricted
 Rights clause in FAR 52.227-19.
  
 Gaussian, Inc.
 340 Quinnipiac St., Bldg. 40, Wallingford CT 06492
  
  
 ---------------------------------------------------------------
 Warning -- This program may not be used in any manner that
 competes with the business of Gaussian, Inc. or will provide
 assistance to any competitor of Gaussian, Inc.  The licensee
 of this program is prohibited from giving any competitor of
 Gaussian, Inc. access to this program.  By using this program,
 the user acknowledges that Gaussian, Inc. is engaged in the
 business of creating and licensing software in the field of
 computational chemistry and represents and warrants to the
 licensee that it is not a competitor of Gaussian, Inc. and that
 it will not use this program in any manner prohibited above.
 ---------------------------------------------------------------
  

 Cite this work as:
 Gaussian 16, Revision C.02,
 M. J. Frisch, G. W. Trucks, H. B. Schlegel, G. E. Scuseria, 
 M. A. Robb, J. R. Cheeseman, G. Scalmani, V. Barone, 
 G. A. Petersson, H. Nakatsuji, X. Li, M. Caricato, A. V. Marenich, 
 J. Bloino, B. G. Janesko, R. Gomperts, B. Mennucci, H. P. Hratchian, 
 J. V. Ortiz, A. F. Izmaylov, J. L. Sonnenberg, D. Williams-Young, 
 F. Ding, F. Lipparini, F. Egidi, J. Goings, B. Peng, A. Petrone, 
 T. Henderson, D. Ranasinghe, V. G. Zakrzewski, J. Gao, N. Rega, 
 G. Zheng, W. Liang, M. Hada, M. Ehara, K. Toyota, R. Fukuda, 
 J. Hasegawa, M. Ishida, T. Nakajima, Y. Honda, O. Kitao, H. Nakai, 
 T. Vreven, K. Throssell, J. A. Montgomery, Jr., J. E. Peralta, 
 F. Ogliaro, M. J. Bearpark, J. J. Heyd, E. N. Brothers, K. N. Kudin, 
 V. N. Staroverov, T. A. Keith, R. Kobayashi, J. Normand, 
 K. Raghavachari, A. P. Rendell, J. C. Burant, S. S. Iyengar, 
 J. Tomasi, M. Cossi, J. M. Millam, M. Klene, C. Adamo, R. Cammi, 
 J. W. Ochterski, R. L. Martin, K. Morokuma, O. Farkas, 
 J. B. Foresman, and D. J. Fox, Gaussian, Inc., Wallingford CT, 2019.
 
 ******************************************
 Gaussian 16:  ES64L-G16RevC.02  7-Dec-2021
                27-Oct-2022 
 ******************************************
 %chk=C[CH2]3.chk
 -------------------------------------
 # opt b3lyp/6-31g(d) pop=full gfinput
 -------------------------------------
 1/18=20,19=15,26=3,38=1/1,3;
 2/9=110,12=2,17=6,18=5,40=1/2;
 3/5=1,6=6,7=1,11=2,24=10,25=1,30=1,71=1,74=-5/1,2,3;
 4//1;
 5/5=2,38=5/2;
 6/7=3,28=1/1;
 7//1,2,3,16;
 1/18=20,19=15,26=3/3(2);
 2/9=110/2;
 99//99;
 2/9=110/2;
 3/5=1,6=6,7=1,11=2,25=1,30=1,71=1,74=-5/1,2,3;
 4/5=5,16=3,69=1/1;
 5/5=2,38=5/2;
 7//1,2,3,16;
 1/18=20,19=15,26=3/3(-5);
 2/9=110/2;
 6/7=3,19=2,28=1/1;
 99/9=1/99;
 -------------------
 Title Card Required
 -------------------
 Symbolic Z-matrix:
 Charge =  0 Multiplicity = 3
 C                     0.        0.        0.03054 
 C                     1.21365   0.        0.73124 
 H                     1.21365   0.        1.80124 
 C                    -1.21365   0.        0.73124 
 H                    -1.21365   0.        1.80124 
 C                     0.        0.       -1.50946 
 H                    -2.0569    0.        0.24439 
 H                     2.0569    0.        0.24439 
 H                    -0.84325   0.       -1.99631 
 H                     0.84325   0.       -1.99631 
 

 GradGradGradGradGradGradGradGradGradGradGradGradGradGradGradGradGradGrad
 Berny optimization.
 Initialization pass.
                           ----------------------------
                           !    Initial Parameters    !
                           ! (Angstroms and Degrees)  !
 --------------------------                            --------------------------
 ! Name  Definition              Value          Derivative Info.                !
 --------------------------------------------------------------------------------
 ! R1    R(1,2)                  1.4014         estimate D2E/DX2                !
 ! R2    R(1,4)                  1.4014         estimate D2E/DX2                !
 ! R3    R(1,6)                  1.54           estimate D2E/DX2                !
 ! R4    R(2,3)                  1.07           estimate D2E/DX2                !
 ! R5    R(2,8)                  0.9737         estimate D2E/DX2                !
 ! R6    R(4,5)                  1.07           estimate D2E/DX2                !
 ! R7    R(4,7)                  0.9737         estimate D2E/DX2                !
 ! R8    R(6,9)                  0.9737         estimate D2E/DX2                !
 ! R9    R(6,10)                 0.9737         estimate D2E/DX2                !
 ! A1    A(2,1,4)              120.0            estimate D2E/DX2                !
 ! A2    A(2,1,6)              120.0            estimate D2E/DX2                !
 ! A3    A(4,1,6)              120.0            estimate D2E/DX2                !
 ! A4    A(1,2,3)              120.0            estimate D2E/DX2                !
 ! A5    A(1,2,8)              120.0            estimate D2E/DX2                !
 ! A6    A(3,2,8)              120.0            estimate D2E/DX2                !
 ! A7    A(1,4,5)              120.0            estimate D2E/DX2                !
 ! A8    A(1,4,7)              120.0            estimate D2E/DX2                !
 ! A9    A(5,4,7)              120.0            estimate D2E/DX2                !
 ! A10   A(1,6,9)              120.0            estimate D2E/DX2                !
 ! A11   A(1,6,10)             120.0            estimate D2E/DX2                !
 ! A12   A(9,6,10)             120.0            estimate D2E/DX2                !
 ! D1    D(4,1,2,3)              0.0            estimate D2E/DX2                !
 ! D2    D(4,1,2,8)            180.0            estimate D2E/DX2                !
 ! D3    D(6,1,2,3)            180.0            estimate D2E/DX2                !
 ! D4    D(6,1,2,8)              0.0            estimate D2E/DX2                !
 ! D5    D(2,1,4,5)              0.0            estimate D2E/DX2                !
 ! D6    D(2,1,4,7)            180.0            estimate D2E/DX2                !
 ! D7    D(6,1,4,5)            180.0            estimate D2E/DX2                !
 ! D8    D(6,1,4,7)              0.0            estimate D2E/DX2                !
 ! D9    D(2,1,6,9)            180.0            estimate D2E/DX2                !
 ! D10   D(2,1,6,10)             0.0            estimate D2E/DX2                !
 ! D11   D(4,1,6,9)              0.0            estimate D2E/DX2                !
 ! D12   D(4,1,6,10)           180.0            estimate D2E/DX2                !
 --------------------------------------------------------------------------------
 Trust Radius=3.00D-01 FncErr=1.00D-07 GrdErr=1.00D-06 EigMax=2.50D+02 EigMin=1.00D-04
 Number of steps in this run=     43 maximum allowed number of steps=    100.
 GradGradGradGradGradGradGradGradGradGradGradGradGradGradGradGradGradGrad

                          Input orientation:                          
 ---------------------------------------------------------------------
 Center     Atomic      Atomic             Coordinates (Angstroms)
 Number     Number       Type             X           Y           Z
 ---------------------------------------------------------------------
      1          6           0        0.000000    0.000000    0.030540
      2          6           0        1.213648    0.000000    0.731240
      3          1           0        1.213648    0.000000    1.801240
      4          6           0       -1.213648    0.000000    0.731240
      5          1           0       -1.213648    0.000000    1.801240
      6          6           0        0.000000    0.000000   -1.509460
      7          1           0       -2.056897    0.000000    0.244390
      8          1           0        2.056897    0.000000    0.244390
      9          1           0       -0.843249    0.000000   -1.996310
     10          1           0        0.843249    0.000000   -1.996310
 ---------------------------------------------------------------------
                    Distance matrix (angstroms):
                    1          2          3          4          5
     1  C    0.000000
     2  C    1.401400   0.000000
     3  H    2.146700   1.070000   0.000000
     4  C    1.401400   2.427296   2.652671   0.000000
     5  H    2.146700   2.652671   2.427296   1.070000   0.000000
     6  C    1.540000   2.548270   3.526142   2.548270   3.526142
     7  H    2.067984   3.306582   3.622188   0.973700   1.770551
     8  H    2.067984   0.973700   1.770551   3.306582   3.622188
     9  H    2.195265   3.416190   4.318821   2.752585   3.815571
    10  H    2.195265   2.752585   3.815571   3.416190   4.318821
                    6          7          8          9         10
     6  C    0.000000
     7  H    2.703112   0.000000
     8  H    2.703112   4.113794   0.000000
     9  H    0.973700   2.548270   3.664912   0.000000
    10  H    0.973700   3.664912   2.548270   1.686498   0.000000
 Stoichiometry    C4H6(3)
 Framework group  C2V[C2(CC),SGV(C2H6)]
 Deg. of freedom     9
 Full point group                 C2V     NOp   4
 Largest Abelian subgroup         C2V     NOp   4
 Largest concise Abelian subgroup C2      NOp   2
                         Standard orientation:                         
 ---------------------------------------------------------------------
 Center     Atomic      Atomic             Coordinates (Angstroms)
 Number     Number       Type             X           Y           Z
 ---------------------------------------------------------------------
      1          6           0        0.000000    0.000000   -0.030540
      2          6           0        0.000000    1.213648   -0.731240
      3          1           0        0.000000    1.213648   -1.801240
      4          6           0       -0.000000   -1.213648   -0.731240
      5          1           0       -0.000000   -1.213648   -1.801240
      6          6           0       -0.000000    0.000000    1.509460
      7          1           0       -0.000000   -2.056897   -0.244390
      8          1           0        0.000000    2.056897   -0.244390
      9          1           0       -0.000000   -0.843249    1.996310
     10          1           0        0.000000    0.843249    1.996310
 ---------------------------------------------------------------------
 Rotational constants (GHZ):          10.4675252           9.2090181           4.8990124
 Standard basis: 6-31G(d) (6D, 7F)
 AO basis set in the form of general basis input (Overlap normalization):
      1 0
 S   6 1.00       0.000000000000
      0.3047524880D+04  0.1834737132D-02
      0.4573695180D+03  0.1403732281D-01
      0.1039486850D+03  0.6884262226D-01
      0.2921015530D+02  0.2321844432D+00
      0.9286662960D+01  0.4679413484D+00
      0.3163926960D+01  0.3623119853D+00
 SP   3 1.00       0.000000000000
      0.7868272350D+01 -0.1193324198D+00  0.6899906659D-01
      0.1881288540D+01 -0.1608541517D+00  0.3164239610D+00
      0.5442492580D+00  0.1143456438D+01  0.7443082909D+00
 SP   1 1.00       0.000000000000
      0.1687144782D+00  0.1000000000D+01  0.1000000000D+01
 D   1 1.00       0.000000000000
      0.8000000000D+00  0.1000000000D+01
 ****
      2 0
 S   6 1.00       0.000000000000
      0.3047524880D+04  0.1834737132D-02
      0.4573695180D+03  0.1403732281D-01
      0.1039486850D+03  0.6884262226D-01
      0.2921015530D+02  0.2321844432D+00
      0.9286662960D+01  0.4679413484D+00
      0.3163926960D+01  0.3623119853D+00
 SP   3 1.00       0.000000000000
      0.7868272350D+01 -0.1193324198D+00  0.6899906659D-01
      0.1881288540D+01 -0.1608541517D+00  0.3164239610D+00
      0.5442492580D+00  0.1143456438D+01  0.7443082909D+00
 SP   1 1.00       0.000000000000
      0.1687144782D+00  0.1000000000D+01  0.1000000000D+01
 D   1 1.00       0.000000000000
      0.8000000000D+00  0.1000000000D+01
 ****
      3 0
 S   3 1.00       0.000000000000
      0.1873113696D+02  0.3349460434D-01
      0.2825394365D+01  0.2347269535D+00
      0.6401216923D+00  0.8137573261D+00
 S   1 1.00       0.000000000000
      0.1612777588D+00  0.1000000000D+01
 ****
      4 0
 S   6 1.00       0.000000000000
      0.3047524880D+04  0.1834737132D-02
      0.4573695180D+03  0.1403732281D-01
      0.1039486850D+03  0.6884262226D-01
      0.2921015530D+02  0.2321844432D+00
      0.9286662960D+01  0.4679413484D+00
      0.3163926960D+01  0.3623119853D+00
 SP   3 1.00       0.000000000000
      0.7868272350D+01 -0.1193324198D+00  0.6899906659D-01
      0.1881288540D+01 -0.1608541517D+00  0.3164239610D+00
      0.5442492580D+00  0.1143456438D+01  0.7443082909D+00
 SP   1 1.00       0.000000000000
      0.1687144782D+00  0.1000000000D+01  0.1000000000D+01
 D   1 1.00       0.000000000000
      0.8000000000D+00  0.1000000000D+01
 ****
      5 0
 S   3 1.00       0.000000000000
      0.1873113696D+02  0.3349460434D-01
      0.2825394365D+01  0.2347269535D+00
      0.6401216923D+00  0.8137573261D+00
 S   1 1.00       0.000000000000
      0.1612777588D+00  0.1000000000D+01
 ****
      6 0
 S   6 1.00       0.000000000000
      0.3047524880D+04  0.1834737132D-02
      0.4573695180D+03  0.1403732281D-01
      0.1039486850D+03  0.6884262226D-01
      0.2921015530D+02  0.2321844432D+00
      0.9286662960D+01  0.4679413484D+00
      0.3163926960D+01  0.3623119853D+00
 SP   3 1.00       0.000000000000
      0.7868272350D+01 -0.1193324198D+00  0.6899906659D-01
      0.1881288540D+01 -0.1608541517D+00  0.3164239610D+00
      0.5442492580D+00  0.1143456438D+01  0.7443082909D+00
 SP   1 1.00       0.000000000000
      0.1687144782D+00  0.1000000000D+01  0.1000000000D+01
 D   1 1.00       0.000000000000
      0.8000000000D+00  0.1000000000D+01
 ****
      7 0
 S   3 1.00       0.000000000000
      0.1873113696D+02  0.3349460434D-01
      0.2825394365D+01  0.2347269535D+00
      0.6401216923D+00  0.8137573261D+00
 S   1 1.00       0.000000000000
      0.1612777588D+00  0.1000000000D+01
 ****
      8 0
 S   3 1.00       0.000000000000
      0.1873113696D+02  0.3349460434D-01
      0.2825394365D+01  0.2347269535D+00
      0.6401216923D+00  0.8137573261D+00
 S   1 1.00       0.000000000000
      0.1612777588D+00  0.1000000000D+01
 ****
      9 0
 S   3 1.00       0.000000000000
      0.1873113696D+02  0.3349460434D-01
      0.2825394365D+01  0.2347269535D+00
      0.6401216923D+00  0.8137573261D+00
 S   1 1.00       0.000000000000
      0.1612777588D+00  0.1000000000D+01
 ****
     10 0
 S   3 1.00       0.000000000000
      0.1873113696D+02  0.3349460434D-01
      0.2825394365D+01  0.2347269535D+00
      0.6401216923D+00  0.8137573261D+00
 S   1 1.00       0.000000000000
      0.1612777588D+00  0.1000000000D+01
 ****

 There are    33 symmetry adapted cartesian basis functions of A1  symmetry.
 There are     6 symmetry adapted cartesian basis functions of A2  symmetry.
 There are    10 symmetry adapted cartesian basis functions of B1  symmetry.
 There are    23 symmetry adapted cartesian basis functions of B2  symmetry.
 There are    33 symmetry adapted basis functions of A1  symmetry.
 There are     6 symmetry adapted basis functions of A2  symmetry.
 There are    10 symmetry adapted basis functions of B1  symmetry.
 There are    23 symmetry adapted basis functions of B2  symmetry.
    72 basis functions,   136 primitive gaussians,    72 cartesian basis functions
    16 alpha electrons       14 beta electrons
       nuclear repulsion energy       105.6645121151 Hartrees.
 NAtoms=   10 NActive=   10 NUniq=    6 SFac= 2.78D+00 NAtFMM=   60 NAOKFM=F Big=F
 Integral buffers will be    131072 words long.
 Raffenetti 2 integral format.
 Two-electron integral symmetry is turned on.
 One-electron integrals computed using PRISM.
 NBasis=    72 RedAO= T EigKep=  3.66D-03  NBF=    33     6    10    23
 NBsUse=    72 1.00D-06 EigRej= -1.00D+00 NBFU=    33     6    10    23
 ExpMin= 1.61D-01 ExpMax= 3.05D+03 ExpMxC= 4.57D+02 IAcc=3 IRadAn=         5 AccDes= 0.00D+00
 Harris functional with IExCor=  402 and IRadAn=       5 diagonalized for initial guess.
 HarFok:  IExCor=  402 AccDes= 0.00D+00 IRadAn=         5 IDoV= 1 UseB2=F ITyADJ=14
 ICtDFT=  3500011 ScaDFX=  1.000000  1.000000  1.000000  1.000000
 FoFCou: FMM=F IPFlag=           0 FMFlag=      100000 FMFlg1=           0
         NFxFlg=           0 DoJE=T BraDBF=F KetDBF=T FulRan=T
         wScrn=  0.000000 ICntrl=       500 IOpCl=  0 I1Cent=   200000004 NGrid=           0
         NMat0=    1 NMatS0=      1 NMatT0=    0 NMatD0=    1 NMtDS0=    0 NMtDT0=    0
 Petite list used in FoFCou.
 Initial guess orbital symmetries:
 Alpha Orbitals:
       Occupied  (A1) (A1) (B2) (A1) (A1) (B2) (A1) (A1) (A1) (B2)
                 (B2) (B2) (A1) (B1) (B1) (A2)
       Virtual   (B1) (A1) (A1) (B2) (A1) (B2) (A1) (B2) (A1) (B2)
                 (B2) (A1) (B1) (A1) (B1) (A2) (A1) (A1) (B2) (B1)
                 (A1) (B2) (B2) (A1) (B2) (A1) (B2) (A1) (B2) (A1)
                 (B1) (A2) (B2) (A1) (A2) (A2) (B1) (A1) (A1) (B2)
                 (B1) (A1) (B2) (A1) (B2) (B1) (A1) (A2) (B2) (A1)
                 (B2) (A1) (A1) (B2) (A1) (A1)
 Beta  Orbitals:
       Occupied  (A1) (A1) (B2) (A1) (A1) (B2) (A1) (A1) (A1) (B2)
                 (B2) (B2) (A1) (B1)
       Virtual   (B1) (A2) (B1) (A1) (A1) (B2) (A1) (B2) (A1) (B2)
                 (A1) (B2) (B2) (A1) (B1) (A1) (B1) (A2) (A1) (A1)
                 (B2) (B1) (A1) (B2) (B2) (A1) (B2) (A1) (B2) (A1)
                 (B2) (A1) (B1) (A2) (B2) (A1) (A2) (A2) (B1) (A1)
                 (A1) (B2) (B1) (A1) (B2) (A1) (B2) (B1) (A1) (A2)
                 (B2) (A1) (B2) (A1) (A1) (B2) (A1) (A1)
 The electronic state of the initial guess is 3-B2.
 Initial guess <Sx>= 0.0000 <Sy>= 0.0000 <Sz>= 1.0000 <S**2>= 2.0000 S= 1.0000
 Keep R1 and R2 ints in memory in symmetry-blocked form, NReq=4417624.
 Requested convergence on RMS density matrix=1.00D-08 within 128 cycles.
 Requested convergence on MAX density matrix=1.00D-06.
 Requested convergence on             energy=1.00D-06.
 No special actions if energy rises.
 Integral accuracy reduced to 1.0D-05 until final iterations.
 Initial convergence to 1.0D-05 achieved.  Increase integral accuracy.
 SCF Done:  E(UB3LYP) =  -155.878163487     A.U. after   14 cycles
            NFock= 14  Conv=0.77D-08     -V/T= 2.0059
 <Sx>= 0.0000 <Sy>= 0.0000 <Sz>= 1.0000 <S**2>= 2.0377 S= 1.0125
 <L.S>=  0.00000000000    
 Annihilation of the first spin contaminant:
 S**2 before annihilation     2.0377,   after     2.0003

 **********************************************************************

            Population analysis using the SCF Density.

 **********************************************************************

 Orbital symmetries:
 Alpha Orbitals:
       Occupied  (A1) (A1) (B2) (A1) (A1) (A1) (B2) (A1) (A1) (B2)
                 (B2) (B2) (A1) (B1) (B1) (A2)
       Virtual   (B1) (A1) (A1) (B2) (B2) (A1) (A1) (B2) (A1) (B2)
                 (B2) (A1) (B1) (A1) (B1) (A2) (A1) (A1) (B2) (B1)
                 (A1) (B2) (B2) (A1) (B2) (A1) (B2) (A1) (B2) (A1)
                 (B1) (A2) (B2) (A1) (A2) (A2) (B1) (A1) (A1) (B2)
                 (B1) (B2) (A1) (A1) (B1) (B2) (A1) (A2) (B2) (A1)
                 (B2) (A1) (A1) (B2) (A1) (A1)
 Beta  Orbitals:
       Occupied  (A1) (A1) (B2) (A1) (A1) (B2) (A1) (A1) (A1) (B2)
                 (B2) (B2) (A1) (B1)
       Virtual   (A2) (B1) (B1) (A1) (A1) (B2) (B2) (A1) (A1) (B2)
                 (A1) (B2) (B2) (A1) (B1) (A1) (A1) (A2) (B1) (A1)
                 (B2) (B1) (A1) (B2) (B2) (A1) (B2) (A1) (B2) (A1)
                 (B2) (A1) (B1) (A2) (B2) (A1) (A2) (A2) (B1) (A1)
                 (A1) (B2) (B1) (A1) (B2) (A1) (B1) (B2) (A1) (A2)
                 (B2) (A1) (B2) (A1) (A1) (B2) (A1) (A1)
 The electronic state is 3-B2.
 Alpha  occ. eigenvalues --  -10.20191 -10.18004 -10.17612 -10.17611  -0.80846
 Alpha  occ. eigenvalues --   -0.69574  -0.69322  -0.54138  -0.48097  -0.47046
 Alpha  occ. eigenvalues --   -0.41308  -0.38692  -0.36344  -0.33785  -0.20849
 Alpha  occ. eigenvalues --   -0.19865
 Alpha virt. eigenvalues --    0.07212   0.11621   0.15938   0.17331   0.18399
 Alpha virt. eigenvalues --    0.18519   0.24257   0.24680   0.34752   0.37116
 Alpha virt. eigenvalues --    0.48819   0.49819   0.50859   0.55959   0.58543
 Alpha virt. eigenvalues --    0.58911   0.61678   0.64955   0.65149   0.72450
 Alpha virt. eigenvalues --    0.85805   0.88464   0.93743   0.94424   0.96924
 Alpha virt. eigenvalues --    0.99390   1.04458   1.07218   1.11271   1.16592
 Alpha virt. eigenvalues --    1.34908   1.35596   1.38673   1.39822   1.63633
 Alpha virt. eigenvalues --    1.65041   1.65043   1.77157   1.88517   1.93636
 Alpha virt. eigenvalues --    1.93682   2.19124   2.19289   2.24436   2.32226
 Alpha virt. eigenvalues --    2.33694   2.39588   2.41054   2.44170   2.58890
 Alpha virt. eigenvalues --    2.90971   2.95816   4.05042   4.15364   4.16633
 Alpha virt. eigenvalues --    4.48570
  Beta  occ. eigenvalues --  -10.20623 -10.16787 -10.16584 -10.16584  -0.79313
  Beta  occ. eigenvalues --   -0.66534  -0.66337  -0.53269  -0.47372  -0.46163
  Beta  occ. eigenvalues --   -0.40531  -0.37976  -0.35577  -0.29596
  Beta virt. eigenvalues --   -0.06002  -0.05640   0.10500   0.12487   0.16382
  Beta virt. eigenvalues --    0.18322   0.18794   0.19681   0.24822   0.25068
  Beta virt. eigenvalues --    0.35110   0.37504   0.49293   0.50496   0.56035
  Beta virt. eigenvalues --    0.56660   0.63136   0.64177   0.64595   0.66410
  Beta virt. eigenvalues --    0.66796   0.72138   0.86754   0.89239   0.94635
  Beta virt. eigenvalues --    0.96448   0.98193   1.00636   1.06129   1.09148
  Beta virt. eigenvalues --    1.12410   1.17472   1.37359   1.38009   1.39207
  Beta virt. eigenvalues --    1.40406   1.69493   1.70059   1.70131   1.78813
  Beta virt. eigenvalues --    1.91358   1.94417   1.98514   2.22099   2.23017
  Beta virt. eigenvalues --    2.26117   2.34234   2.34829   2.42426   2.42903
  Beta virt. eigenvalues --    2.46234   2.59906   2.91285   2.96193   4.06452
  Beta virt. eigenvalues --    4.18025   4.19544   4.49399
     Alpha Molecular Orbital Coefficients:
                           1         2         3         4         5
                        (A1)--O   (A1)--O   (B2)--O   (A1)--O   (A1)--O
     Eigenvalues --   -10.20191 -10.18004 -10.17612 -10.17611  -0.80846
   1 1   C  1S          0.99284  -0.00487   0.00000  -0.01463  -0.14970
   2        2S          0.04844  -0.00039   0.00000  -0.00117   0.29426
   3        2PX         0.00000   0.00000   0.00000   0.00000   0.00000
   4        2PY         0.00000   0.00000  -0.00038   0.00000   0.00000
   5        2PZ        -0.00012  -0.00021   0.00000   0.00022  -0.03210
   6        3S         -0.01552   0.00292   0.00000   0.00559   0.16163
   7        3PX         0.00000   0.00000   0.00000   0.00000   0.00000
   8        3PY         0.00000   0.00000   0.00303   0.00000   0.00000
   9        3PZ         0.00042   0.00233   0.00000  -0.00103   0.02065
  10        4XX        -0.00925  -0.00010   0.00000  -0.00005  -0.01703
  11        4YY        -0.00859  -0.00017   0.00000  -0.00033   0.00396
  12        4ZZ        -0.00889  -0.00036   0.00000  -0.00026   0.00140
  13        4XY         0.00000   0.00000   0.00000   0.00000   0.00000
  14        4XZ         0.00000   0.00000   0.00000   0.00000   0.00000
  15        4YZ         0.00000   0.00000   0.00007   0.00000   0.00000
  16 2   C  1S          0.00998  -0.00119   0.70177   0.70167  -0.10693
  17        2S          0.00015  -0.00020   0.03636   0.03611   0.20552
  18        2PX         0.00000   0.00000   0.00000   0.00000   0.00000
  19        2PY         0.00032  -0.00000   0.00007   0.00011  -0.06016
  20        2PZ        -0.00020  -0.00007   0.00006   0.00012   0.03916
  21        3S          0.00440   0.00036  -0.00990  -0.00923   0.16616
  22        3PX         0.00000   0.00000   0.00000   0.00000   0.00000
  23        3PY        -0.00148  -0.00033   0.00083   0.00024  -0.01876
  24        3PZ         0.00085   0.00004  -0.00067  -0.00059  -0.00175
  25        4XX        -0.00021  -0.00006  -0.00705  -0.00715  -0.00761
  26        4YY        -0.00051   0.00009  -0.00714  -0.00701   0.00536
  27        4ZZ        -0.00038   0.00002  -0.00720  -0.00716   0.00034
  28        4XY         0.00000   0.00000   0.00000   0.00000   0.00000
  29        4XZ         0.00000   0.00000   0.00000   0.00000   0.00000
  30        4YZ         0.00018  -0.00001   0.00009   0.00005  -0.00266
  31 3   H  1S         -0.00008  -0.00001  -0.00017  -0.00023   0.05141
  32        2S         -0.00015   0.00008   0.00149   0.00141   0.00307
  33 4   C  1S          0.00998  -0.00119  -0.70177   0.70167  -0.10693
  34        2S          0.00015  -0.00020  -0.03636   0.03611   0.20552
  35        2PX         0.00000   0.00000   0.00000   0.00000   0.00000
  36        2PY        -0.00032   0.00000   0.00007  -0.00011   0.06016
  37        2PZ        -0.00020  -0.00007  -0.00006   0.00012   0.03916
  38        3S          0.00440   0.00036   0.00990  -0.00923   0.16616
  39        3PX         0.00000   0.00000   0.00000   0.00000   0.00000
  40        3PY         0.00148   0.00033   0.00083  -0.00024   0.01876
  41        3PZ         0.00085   0.00004   0.00067  -0.00059  -0.00175
  42        4XX        -0.00021  -0.00006   0.00705  -0.00715  -0.00761
  43        4YY        -0.00051   0.00009   0.00714  -0.00701   0.00536
  44        4ZZ        -0.00038   0.00002   0.00720  -0.00716   0.00034
  45        4XY         0.00000   0.00000   0.00000   0.00000   0.00000
  46        4XZ         0.00000   0.00000   0.00000   0.00000   0.00000
  47        4YZ        -0.00018   0.00001   0.00009  -0.00005   0.00266
  48 5   H  1S         -0.00008  -0.00001   0.00017  -0.00023   0.05141
  49        2S         -0.00015   0.00008  -0.00149   0.00141   0.00307
  50 6   C  1S          0.00466   0.99239   0.00000   0.00157  -0.08400
  51        2S          0.00013   0.05149   0.00000  -0.00008   0.16188
  52        2PX         0.00000   0.00000   0.00000   0.00000   0.00000
  53        2PY         0.00000   0.00000  -0.00007   0.00000   0.00000
  54        2PZ         0.00020   0.00028   0.00000   0.00009  -0.04436
  55        3S          0.00350  -0.01325   0.00000  -0.00012   0.11455
  56        3PX         0.00000   0.00000   0.00000   0.00000   0.00000
  57        3PY         0.00000   0.00000   0.00001   0.00000   0.00000
  58        3PZ        -0.00131   0.00077   0.00000  -0.00015  -0.00558
  59        4XX        -0.00018  -0.01007   0.00000  -0.00010  -0.00542
  60        4YY        -0.00020  -0.01000   0.00000  -0.00000   0.00037
  61        4ZZ        -0.00060  -0.01043   0.00000   0.00004   0.00580
  62        4XY         0.00000   0.00000   0.00000   0.00000   0.00000
  63        4XZ         0.00000   0.00000   0.00000   0.00000   0.00000
  64        4YZ         0.00000   0.00000   0.00002   0.00000   0.00000
  65 7   H  1S         -0.00008  -0.00004   0.00026  -0.00027   0.06096
  66        2S         -0.00017   0.00009  -0.00172   0.00208   0.01325
  67 8   H  1S         -0.00008  -0.00004  -0.00026  -0.00027   0.06096
  68        2S         -0.00017   0.00009   0.00172   0.00208   0.01325
  69 9   H  1S         -0.00010  -0.00037   0.00002  -0.00001   0.04931
  70        2S         -0.00020   0.00256   0.00010   0.00010   0.00808
  71 10  H  1S         -0.00010  -0.00037  -0.00002  -0.00001   0.04931
  72        2S         -0.00020   0.00256  -0.00010   0.00010   0.00808
                           6         7         8         9        10
                        (A1)--O   (B2)--O   (A1)--O   (A1)--O   (B2)--O
     Eigenvalues --    -0.69574  -0.69322  -0.54138  -0.48097  -0.47046
   1 1   C  1S          0.00754   0.00000  -0.12818  -0.01543   0.00000
   2        2S         -0.01746   0.00000   0.27098   0.03202   0.00000
   3        2PX         0.00000   0.00000   0.00000   0.00000   0.00000
   4        2PY         0.00000   0.19915   0.00000   0.00000   0.17819
   5        2PZ         0.15956   0.00000  -0.00660   0.21492   0.00000
   6        3S         -0.00289   0.00000   0.23506   0.04941   0.00000
   7        3PX         0.00000   0.00000   0.00000   0.00000   0.00000
   8        3PY         0.00000   0.02946   0.00000   0.00000   0.03306
   9        3PZ         0.02309   0.00000   0.00532   0.03252   0.00000
  10        4XX         0.00068   0.00000  -0.01082  -0.00109   0.00000
  11        4YY        -0.00852   0.00000  -0.00995   0.00963   0.00000
  12        4ZZ         0.01185   0.00000  -0.00479  -0.00865   0.00000
  13        4XY         0.00000   0.00000   0.00000   0.00000   0.00000
  14        4XZ         0.00000   0.00000   0.00000   0.00000   0.00000
  15        4YZ         0.00000  -0.01333   0.00000   0.00000   0.00849
  16 2   C  1S          0.07008  -0.14639   0.06014  -0.00149   0.02007
  17        2S         -0.13760   0.28857  -0.12246   0.00505  -0.04201
  18        2PX         0.00000   0.00000   0.00000   0.00000   0.00000
  19        2PY         0.01329   0.03272  -0.22496   0.19775  -0.06971
  20        2PZ         0.02272   0.03057   0.08980   0.21017   0.17676
  21        3S         -0.12598   0.25823  -0.12596  -0.01186  -0.04899
  22        3PX         0.00000   0.00000   0.00000   0.00000   0.00000
  23        3PY         0.00495   0.01096  -0.06666   0.08704  -0.03137
  24        3PZ         0.01337   0.00179   0.03038   0.08719   0.08353
  25        4XX         0.00427  -0.00884   0.00296  -0.00037   0.00024
  26        4YY        -0.00189  -0.00188   0.00514   0.00430   0.00271
  27        4ZZ         0.00087   0.00281  -0.00483  -0.00419  -0.00511
  28        4XY         0.00000   0.00000   0.00000   0.00000   0.00000
  29        4XZ         0.00000   0.00000   0.00000   0.00000   0.00000
  30        4YZ        -0.00282   0.00456  -0.01493   0.00639  -0.00358
  31 3   H  1S         -0.05734   0.09038  -0.09981  -0.11330  -0.11508
  32        2S         -0.01410   0.01971  -0.05529  -0.07548  -0.06320
  33 4   C  1S          0.07008   0.14639   0.06014  -0.00149  -0.02007
  34        2S         -0.13760  -0.28857  -0.12246   0.00505   0.04201
  35        2PX         0.00000   0.00000   0.00000   0.00000   0.00000
  36        2PY        -0.01329   0.03272   0.22496  -0.19775  -0.06971
  37        2PZ         0.02272  -0.03057   0.08980   0.21017  -0.17676
  38        3S         -0.12598  -0.25823  -0.12596  -0.01186   0.04899
  39        3PX         0.00000   0.00000   0.00000   0.00000   0.00000
  40        3PY        -0.00495   0.01096   0.06666  -0.08704  -0.03137
  41        3PZ         0.01337  -0.00179   0.03038   0.08719  -0.08353
  42        4XX         0.00427   0.00884   0.00296  -0.00037  -0.00024
  43        4YY        -0.00189   0.00188   0.00514   0.00430  -0.00271
  44        4ZZ         0.00087  -0.00281  -0.00483  -0.00419   0.00511
  45        4XY         0.00000   0.00000   0.00000   0.00000   0.00000
  46        4XZ         0.00000   0.00000   0.00000   0.00000   0.00000
  47        4YZ         0.00282   0.00456   0.01493  -0.00639  -0.00358
  48 5   H  1S         -0.05734  -0.09038  -0.09981  -0.11330   0.11508
  49        2S         -0.01410  -0.01971  -0.05529  -0.07548   0.06320
  50 6   C  1S         -0.18253   0.00000   0.03528   0.01993   0.00000
  51        2S          0.36167   0.00000  -0.07309  -0.04285   0.00000
  52        2PX         0.00000   0.00000   0.00000   0.00000   0.00000
  53        2PY         0.00000   0.03861   0.00000   0.00000   0.37834
  54        2PZ         0.05502   0.00000  -0.18169  -0.20271   0.00000
  55        3S          0.32484   0.00000  -0.06574  -0.02773   0.00000
  56        3PX         0.00000   0.00000   0.00000   0.00000   0.00000
  57        3PY         0.00000   0.02217   0.00000   0.00000   0.14006
  58        3PZ         0.01355   0.00000  -0.05314  -0.09201   0.00000
  59        4XX        -0.01008   0.00000   0.00211   0.00111   0.00000
  60        4YY         0.00788   0.00000  -0.00923  -0.00740   0.00000
  61        4ZZ        -0.00554   0.00000   0.01143   0.00615   0.00000
  62        4XY         0.00000   0.00000   0.00000   0.00000   0.00000
  63        4XZ         0.00000   0.00000   0.00000   0.00000   0.00000
  64        4YZ         0.00000  -0.00189   0.00000   0.00000   0.01576
  65 7   H  1S         -0.04422  -0.13054  -0.13542   0.15272   0.00448
  66        2S         -0.00949  -0.03466  -0.07256   0.08242  -0.00502
  67 8   H  1S         -0.04422   0.13054  -0.13542   0.15272  -0.00448
  68        2S         -0.00949   0.03466  -0.07256   0.08242   0.00502
  69 9   H  1S          0.15203  -0.01343  -0.08101  -0.07532  -0.18521
  70        2S          0.03747  -0.00086  -0.04579  -0.03380  -0.11923
  71 10  H  1S          0.15203   0.01343  -0.08101  -0.07532   0.18521
  72        2S          0.03747   0.00086  -0.04579  -0.03380   0.11923
                          11        12        13        14        15
                        (B2)--O   (B2)--O   (A1)--O   (B1)--O   (B1)--O
     Eigenvalues --    -0.41308  -0.38692  -0.36344  -0.33785  -0.20849
   1 1   C  1S          0.00000   0.00000   0.00126   0.00000   0.00000
   2        2S          0.00000   0.00000  -0.00112   0.00000   0.00000
   3        2PX         0.00000   0.00000   0.00000   0.34244  -0.02662
   4        2PY         0.10201   0.35602   0.00000   0.00000   0.00000
   5        2PZ         0.00000   0.00000  -0.34441   0.00000   0.00000
   6        3S          0.00000   0.00000  -0.03187   0.00000   0.00000
   7        3PX         0.00000   0.00000   0.00000   0.17488  -0.00930
   8        3PY        -0.00047  -0.00339   0.00000   0.00000   0.00000
   9        3PZ         0.00000   0.00000  -0.03450   0.00000   0.00000
  10        4XX         0.00000   0.00000  -0.00038   0.00000   0.00000
  11        4YY         0.00000   0.00000   0.01637   0.00000   0.00000
  12        4ZZ         0.00000   0.00000  -0.01878   0.00000   0.00000
  13        4XY         0.00000   0.00000   0.00000   0.00000   0.00000
  14        4XZ         0.00000   0.00000   0.00000  -0.00401   0.02565
  15        4YZ        -0.00067  -0.02000   0.00000   0.00000   0.00000
  16 2   C  1S          0.00393  -0.02529  -0.01592   0.00000   0.00000
  17        2S         -0.00743   0.05270   0.03587   0.00000   0.00000
  18        2PX         0.00000   0.00000   0.00000   0.27029  -0.21746
  19        2PY         0.06382  -0.34181  -0.06289   0.00000   0.00000
  20        2PZ         0.28278   0.01353   0.22392   0.00000   0.00000
  21        3S         -0.00343   0.16399   0.07224   0.00000   0.00000
  22        3PX         0.00000   0.00000   0.00000   0.18536  -0.18543
  23        3PY         0.00842  -0.13544  -0.05828   0.00000   0.00000
  24        3PZ         0.11026   0.05468   0.06140   0.00000   0.00000
  25        4XX        -0.00053  -0.00001  -0.00036   0.00000   0.00000
  26        4YY         0.01039  -0.01164   0.01395   0.00000   0.00000
  27        4ZZ        -0.01279   0.00335  -0.01870   0.00000   0.00000
  28        4XY         0.00000   0.00000   0.00000  -0.01022   0.00158
  29        4XZ         0.00000   0.00000   0.00000   0.00688   0.00198
  30        4YZ         0.00497  -0.01695   0.00445   0.00000   0.00000
  31 3   H  1S         -0.17498   0.01991  -0.14879   0.00000   0.00000
  32        2S         -0.13533   0.02400  -0.17056   0.00000   0.00000
  33 4   C  1S         -0.00393   0.02529  -0.01592   0.00000   0.00000
  34        2S          0.00743  -0.05270   0.03587   0.00000   0.00000
  35        2PX         0.00000   0.00000   0.00000   0.27029  -0.21746
  36        2PY         0.06382  -0.34181   0.06289   0.00000   0.00000
  37        2PZ        -0.28278  -0.01353   0.22392   0.00000   0.00000
  38        3S          0.00343  -0.16399   0.07224   0.00000   0.00000
  39        3PX         0.00000   0.00000   0.00000   0.18536  -0.18543
  40        3PY         0.00842  -0.13544   0.05828   0.00000   0.00000
  41        3PZ        -0.11026  -0.05468   0.06140   0.00000   0.00000
  42        4XX         0.00053   0.00001  -0.00036   0.00000   0.00000
  43        4YY        -0.01039   0.01164   0.01395   0.00000   0.00000
  44        4ZZ         0.01279  -0.00335  -0.01870   0.00000   0.00000
  45        4XY         0.00000   0.00000   0.00000   0.01022  -0.00158
  46        4XZ         0.00000   0.00000   0.00000   0.00688   0.00198
  47        4YZ         0.00497  -0.01695  -0.00445   0.00000   0.00000
  48 5   H  1S          0.17498  -0.01991  -0.14879   0.00000   0.00000
  49        2S          0.13533  -0.02400  -0.17056   0.00000   0.00000
  50 6   C  1S          0.00000   0.00000   0.03150   0.00000   0.00000
  51        2S          0.00000   0.00000  -0.06377   0.00000   0.00000
  52        2PX         0.00000   0.00000   0.00000   0.22727   0.53597
  53        2PY        -0.27242  -0.13201   0.00000   0.00000   0.00000
  54        2PZ         0.00000   0.00000   0.35837   0.00000   0.00000
  55        3S          0.00000   0.00000  -0.18685   0.00000   0.00000
  56        3PX         0.00000   0.00000   0.00000   0.16367   0.46448
  57        3PY        -0.06342   0.01012   0.00000   0.00000   0.00000
  58        3PZ         0.00000   0.00000   0.18580   0.00000   0.00000
  59        4XX         0.00000   0.00000  -0.00100   0.00000   0.00000
  60        4YY         0.00000   0.00000   0.01265   0.00000   0.00000
  61        4ZZ         0.00000   0.00000  -0.00562   0.00000   0.00000
  62        4XY         0.00000   0.00000   0.00000   0.00000   0.00000
  63        4XZ         0.00000   0.00000   0.00000  -0.00865   0.00610
  64        4YZ        -0.02016  -0.01644   0.00000   0.00000   0.00000
  65 7   H  1S         -0.11335   0.16785   0.06360   0.00000   0.00000
  66        2S         -0.08571   0.17365   0.07260   0.00000   0.00000
  67 8   H  1S          0.11335  -0.16785   0.06360   0.00000   0.00000
  68        2S          0.08571  -0.17365   0.07260   0.00000   0.00000
  69 9   H  1S          0.14722   0.08275   0.08539   0.00000   0.00000
  70        2S          0.12824   0.10520   0.08478   0.00000   0.00000
  71 10  H  1S         -0.14722  -0.08275   0.08539   0.00000   0.00000
  72        2S         -0.12824  -0.10520   0.08478   0.00000   0.00000
                          16        17        18        19        20
                        (A2)--O   (B1)--V   (A1)--V   (A1)--V   (B2)--V
     Eigenvalues --    -0.19865   0.07212   0.11621   0.15938   0.17331
   1 1   C  1S          0.00000   0.00000   0.00191   0.03848   0.00000
   2        2S          0.00000   0.00000  -0.01795  -0.05358   0.00000
   3        2PX         0.00000   0.54356   0.00000   0.00000   0.00000
   4        2PY         0.00000   0.00000   0.00000   0.00000  -0.14003
   5        2PZ         0.00000   0.00000  -0.02352  -0.15089   0.00000
   6        3S          0.00000   0.00000   0.39664  -0.68950   0.00000
   7        3PX         0.00000   0.78659   0.00000   0.00000   0.00000
   8        3PY         0.00000   0.00000   0.00000   0.00000  -0.57455
   9        3PZ         0.00000   0.00000   0.01256   0.08855   0.00000
  10        4XX         0.00000   0.00000  -0.00037   0.00195   0.00000
  11        4YY         0.00000   0.00000  -0.00641  -0.02668   0.00000
  12        4ZZ         0.00000   0.00000   0.00964   0.02956   0.00000
  13        4XY         0.02970   0.00000   0.00000   0.00000   0.00000
  14        4XZ         0.00000   0.00210   0.00000   0.00000   0.00000
  15        4YZ         0.00000   0.00000   0.00000   0.00000  -0.01691
  16 2   C  1S          0.00000   0.00000  -0.06904   0.00654  -0.09962
  17        2S          0.00000   0.00000   0.11279  -0.02747   0.14553
  18        2PX         0.43761  -0.24186   0.00000   0.00000   0.00000
  19        2PY         0.00000   0.00000   0.08195  -0.09547   0.07398
  20        2PZ         0.00000   0.00000  -0.13240  -0.23191  -0.11064
  21        3S          0.00000   0.00000   1.05333  -0.00535   1.84129
  22        3PX         0.38374  -0.45346   0.00000   0.00000   0.00000
  23        3PY         0.00000   0.00000   0.35879  -0.55576   0.08226
  24        3PZ         0.00000   0.00000  -0.43239  -0.73096  -0.20794
  25        4XX         0.00000   0.00000  -0.00178  -0.00122   0.00054
  26        4YY         0.00000   0.00000   0.00029   0.01363   0.00132
  27        4ZZ         0.00000   0.00000  -0.01270  -0.00681  -0.01957
  28        4XY         0.00333  -0.02949   0.00000   0.00000   0.00000
  29        4XZ         0.00297   0.01681   0.00000   0.00000   0.00000
  30        4YZ         0.00000   0.00000  -0.00518   0.00738   0.00612
  31 3   H  1S          0.00000   0.00000  -0.04455  -0.03680  -0.09117
  32        2S          0.00000   0.00000  -1.02540  -0.98712  -1.22815
  33 4   C  1S          0.00000   0.00000  -0.06904   0.00654   0.09962
  34        2S          0.00000   0.00000   0.11279  -0.02747  -0.14553
  35        2PX        -0.43761  -0.24186   0.00000   0.00000   0.00000
  36        2PY         0.00000   0.00000  -0.08195   0.09547   0.07398
  37        2PZ         0.00000   0.00000  -0.13240  -0.23191   0.11064
  38        3S          0.00000   0.00000   1.05333  -0.00535  -1.84129
  39        3PX        -0.38374  -0.45346   0.00000   0.00000   0.00000
  40        3PY         0.00000   0.00000  -0.35879   0.55576   0.08226
  41        3PZ         0.00000   0.00000  -0.43239  -0.73096   0.20794
  42        4XX         0.00000   0.00000  -0.00178  -0.00122  -0.00054
  43        4YY         0.00000   0.00000   0.00029   0.01363  -0.00132
  44        4ZZ         0.00000   0.00000  -0.01270  -0.00681   0.01957
  45        4XY         0.00333   0.02949   0.00000   0.00000   0.00000
  46        4XZ        -0.00297   0.01681   0.00000   0.00000   0.00000
  47        4YZ         0.00000   0.00000   0.00518  -0.00738   0.00612
  48 5   H  1S          0.00000   0.00000  -0.04455  -0.03680   0.09117
  49        2S          0.00000   0.00000  -1.02540  -0.98712   1.22815
  50 6   C  1S          0.00000   0.00000  -0.07145  -0.00213   0.00000
  51        2S          0.00000   0.00000   0.13051   0.02587   0.00000
  52        2PX         0.00000  -0.19666   0.00000   0.00000   0.00000
  53        2PY         0.00000   0.00000   0.00000   0.00000   0.04006
  54        2PZ         0.00000   0.00000   0.04124  -0.24425   0.00000
  55        3S          0.00000   0.00000   1.06033  -0.57511   0.00000
  56        3PX         0.00000  -0.33511   0.00000   0.00000   0.00000
  57        3PY         0.00000   0.00000   0.00000   0.00000   0.02686
  58        3PZ         0.00000   0.00000   0.37756  -0.68446   0.00000
  59        4XX         0.00000   0.00000   0.00002   0.00942   0.00000
  60        4YY         0.00000   0.00000  -0.01215   0.01119   0.00000
  61        4ZZ         0.00000   0.00000  -0.00405  -0.02324   0.00000
  62        4XY         0.00372   0.00000   0.00000   0.00000   0.00000
  63        4XZ         0.00000  -0.03112   0.00000   0.00000   0.00000
  64        4YZ         0.00000   0.00000   0.00000   0.00000   0.02372
  65 7   H  1S          0.00000   0.00000  -0.01796   0.02149  -0.00363
  66        2S          0.00000   0.00000  -0.64115   1.14374   0.83128
  67 8   H  1S          0.00000   0.00000  -0.01796   0.02149   0.00363
  68        2S          0.00000   0.00000  -0.64115   1.14374  -0.83128
  69 9   H  1S          0.00000   0.00000  -0.01954   0.00246  -0.06656
  70        2S          0.00000   0.00000  -0.75819   0.63057  -0.05048
  71 10  H  1S          0.00000   0.00000  -0.01954   0.00246   0.06656
  72        2S          0.00000   0.00000  -0.75819   0.63057   0.05048
                          21        22        23        24        25
                        (B2)--V   (A1)--V   (A1)--V   (B2)--V   (A1)--V
     Eigenvalues --     0.18399   0.18519   0.24257   0.24680   0.34752
   1 1   C  1S          0.00000   0.03965  -0.16518   0.00000   0.02146
   2        2S          0.00000  -0.05036   0.18656   0.00000  -0.00237
   3        2PX         0.00000   0.00000   0.00000   0.00000   0.00000
   4        2PY         0.08075   0.00000   0.00000   0.01195   0.00000
   5        2PZ         0.00000  -0.21619   0.05388   0.00000   0.44952
   6        3S          0.00000  -0.59214   3.71821   0.00000  -1.66991
   7        3PX         0.00000   0.00000   0.00000   0.00000   0.00000
   8        3PY        -0.37875   0.00000   0.00000   0.11627   0.00000
   9        3PZ         0.00000  -0.76612   0.07345   0.00000   3.18428
  10        4XX         0.00000   0.00009  -0.00953   0.00000   0.01066
  11        4YY         0.00000  -0.00734  -0.01206   0.00000  -0.01497
  12        4ZZ         0.00000   0.01611  -0.00155   0.00000  -0.00392
  13        4XY         0.00000   0.00000   0.00000   0.00000   0.00000
  14        4XZ         0.00000   0.00000   0.00000   0.00000   0.00000
  15        4YZ         0.03373   0.00000   0.00000   0.00186   0.00000
  16 2   C  1S          0.00303   0.04236   0.07571   0.01261  -0.02547
  17        2S         -0.03549  -0.05504  -0.08206  -0.02314  -0.04479
  18        2PX         0.00000   0.00000   0.00000   0.00000   0.00000
  19        2PY         0.18704  -0.07486   0.01582  -0.13995  -0.04389
  20        2PZ         0.09139   0.06120  -0.10099  -0.20804  -0.03438
  21        3S          0.59358  -0.92362  -1.51964  -0.42187   1.25803
  22        3PX         0.00000   0.00000   0.00000   0.00000   0.00000
  23        3PY         0.54951  -0.17369   0.67168  -0.56069  -2.02846
  24        3PZ         0.53930   0.15059  -0.80279  -0.87192  -0.39016
  25        4XX        -0.00740  -0.00056   0.00452   0.00185  -0.00376
  26        4YY         0.00363   0.01870   0.01667  -0.00150  -0.02047
  27        4ZZ         0.00801  -0.01072  -0.00963   0.00210   0.02045
  28        4XY         0.00000   0.00000   0.00000   0.00000   0.00000
  29        4XZ         0.00000   0.00000   0.00000   0.00000   0.00000
  30        4YZ        -0.00776   0.01520  -0.02240  -0.00291   0.01367
  31 3   H  1S          0.02162  -0.03914  -0.01819  -0.01654   0.07260
  32        2S          0.47505   0.45175  -0.17233  -0.92418  -0.63156
  33 4   C  1S         -0.00303   0.04236   0.07571  -0.01261  -0.02547
  34        2S          0.03549  -0.05504  -0.08206   0.02314  -0.04479
  35        2PX         0.00000   0.00000   0.00000   0.00000   0.00000
  36        2PY         0.18704   0.07486  -0.01582  -0.13995   0.04389
  37        2PZ        -0.09139   0.06120  -0.10099   0.20804  -0.03438
  38        3S         -0.59358  -0.92362  -1.51964   0.42187   1.25803
  39        3PX         0.00000   0.00000   0.00000   0.00000   0.00000
  40        3PY         0.54951   0.17369  -0.67168  -0.56069   2.02846
  41        3PZ        -0.53930   0.15059  -0.80279   0.87192  -0.39016
  42        4XX         0.00740  -0.00056   0.00452  -0.00185  -0.00376
  43        4YY        -0.00363   0.01870   0.01667   0.00150  -0.02047
  44        4ZZ        -0.00801  -0.01072  -0.00963  -0.00210   0.02045
  45        4XY         0.00000   0.00000   0.00000   0.00000   0.00000
  46        4XZ         0.00000   0.00000   0.00000   0.00000   0.00000
  47        4YZ        -0.00776  -0.01520   0.02240  -0.00291  -0.01367
  48 5   H  1S         -0.02162  -0.03914  -0.01819   0.01654   0.07260
  49        2S         -0.47505   0.45175  -0.17233   0.92418  -0.63156
  50 6   C  1S          0.00000  -0.13295   0.04411   0.00000   0.03406
  51        2S          0.00000   0.18618  -0.03232   0.00000   0.00532
  52        2PX         0.00000   0.00000   0.00000   0.00000   0.00000
  53        2PY         0.30089   0.00000   0.00000   0.26353   0.00000
  54        2PZ         0.00000   0.05932   0.16046   0.00000   0.20038
  55        3S          0.00000   2.51727  -0.64757   0.00000  -0.99584
  56        3PX         0.00000   0.00000   0.00000   0.00000   0.00000
  57        3PY         1.28913   0.00000   0.00000   1.18608   0.00000
  58        3PZ         0.00000  -0.08122   1.11778   0.00000   1.91081
  59        4XX         0.00000  -0.00054   0.00065   0.00000  -0.00244
  60        4YY         0.00000  -0.00444  -0.02424   0.00000  -0.02499
  61        4ZZ         0.00000  -0.02257   0.03328   0.00000   0.03931
  62        4XY         0.00000   0.00000   0.00000   0.00000   0.00000
  63        4XZ         0.00000   0.00000   0.00000   0.00000   0.00000
  64        4YZ        -0.01049   0.00000   0.00000  -0.00369   0.00000
  65 7   H  1S          0.00798   0.07856  -0.01177   0.00093   0.04505
  66        2S          1.17933   0.68920   0.67104  -1.39655   1.36712
  67 8   H  1S         -0.00798   0.07856  -0.01177  -0.00093   0.04505
  68        2S         -1.17933   0.68920   0.67104   1.39655   1.36712
  69 9   H  1S          0.01666  -0.02863  -0.02466   0.02707  -0.06666
  70        2S          1.50153  -1.25270  -0.25871   1.41496  -0.73394
  71 10  H  1S         -0.01666  -0.02863  -0.02466  -0.02707  -0.06666
  72        2S         -1.50153  -1.25270  -0.25871  -1.41496  -0.73394
                          26        27        28        29        30
                        (B2)--V   (B2)--V   (A1)--V   (B1)--V   (A1)--V
     Eigenvalues --     0.37116   0.48819   0.49819   0.50859   0.55959
   1 1   C  1S          0.00000   0.00000   0.00073   0.00000   0.09718
   2        2S          0.00000   0.00000  -0.05312   0.00000  -0.02477
   3        2PX         0.00000   0.00000   0.00000  -0.26617   0.00000
   4        2PY         0.44933  -0.05524   0.00000   0.00000   0.00000
   5        2PZ         0.00000   0.00000  -0.08232   0.00000  -0.12074
   6        3S          0.00000   0.00000   0.50958   0.00000   0.34946
   7        3PX         0.00000   0.00000   0.00000  -0.09582   0.00000
   8        3PY         3.61068   0.35200   0.00000   0.00000   0.00000
   9        3PZ         0.00000   0.00000   0.70355   0.00000   0.91923
  10        4XX         0.00000   0.00000  -0.01620   0.00000  -0.08400
  11        4YY         0.00000   0.00000  -0.06789   0.00000   0.12300
  12        4ZZ         0.00000   0.00000   0.10187   0.00000   0.08081
  13        4XY         0.00000   0.00000   0.00000   0.00000   0.00000
  14        4XZ         0.00000   0.00000   0.00000   0.01260   0.00000
  15        4YZ        -0.01234   0.09474   0.00000   0.00000   0.00000
  16 2   C  1S          0.04506   0.00348   0.00706   0.00000  -0.03008
  17        2S          0.02846  -0.16161  -0.01427   0.00000   0.33685
  18        2PX         0.00000   0.00000   0.00000  -0.58683   0.00000
  19        2PY         0.06333   0.29131   0.26926   0.00000  -0.51231
  20        2PZ        -0.03526  -0.35023   0.15071   0.00000   0.21007
  21        3S         -2.08188   0.21284  -0.00629   0.00000  -0.04203
  22        3PX         0.00000   0.00000   0.00000   0.61133   0.00000
  23        3PY         1.69759  -0.13663  -0.57698   0.00000   0.26440
  24        3PZ        -1.78837   0.30789  -0.42156   0.00000  -0.22343
  25        4XX         0.00494  -0.01662  -0.01082   0.00000   0.01730
  26        4YY         0.01473  -0.04026   0.06143   0.00000  -0.02328
  27        4ZZ        -0.01216   0.04237  -0.05636   0.00000   0.03531
  28        4XY         0.00000   0.00000   0.00000   0.01138   0.00000
  29        4XZ         0.00000   0.00000   0.00000  -0.00808   0.00000
  30        4YZ        -0.03569  -0.01159   0.04410   0.00000  -0.00289
  31 3   H  1S         -0.10195   0.16454  -0.19092   0.00000   0.07551
  32        2S         -0.96356  -0.22936  -0.03590   0.00000  -0.05710
  33 4   C  1S         -0.04506  -0.00348   0.00706   0.00000  -0.03008
  34        2S         -0.02846   0.16161  -0.01427   0.00000   0.33685
  35        2PX         0.00000   0.00000   0.00000  -0.58683   0.00000
  36        2PY         0.06333   0.29131  -0.26926   0.00000   0.51231
  37        2PZ         0.03526   0.35023   0.15071   0.00000   0.21007
  38        3S          2.08188  -0.21284  -0.00629   0.00000  -0.04203
  39        3PX         0.00000   0.00000   0.00000   0.61133   0.00000
  40        3PY         1.69759  -0.13663   0.57698   0.00000  -0.26440
  41        3PZ         1.78837  -0.30789  -0.42156   0.00000  -0.22343
  42        4XX        -0.00494   0.01662  -0.01082   0.00000   0.01730
  43        4YY        -0.01473   0.04026   0.06143   0.00000  -0.02328
  44        4ZZ         0.01216  -0.04237  -0.05636   0.00000   0.03531
  45        4XY         0.00000   0.00000   0.00000  -0.01138   0.00000
  46        4XZ         0.00000   0.00000   0.00000  -0.00808   0.00000
  47        4YZ        -0.03569  -0.01159  -0.04410   0.00000   0.00289
  48 5   H  1S          0.10195  -0.16454  -0.19092   0.00000   0.07551
  49        2S          0.96356   0.22936  -0.03590   0.00000  -0.05710
  50 6   C  1S          0.00000   0.00000  -0.01312   0.00000  -0.03172
  51        2S          0.00000   0.00000   0.13429   0.00000   0.15598
  52        2PX         0.00000   0.00000   0.00000  -0.58856   0.00000
  53        2PY         0.00668  -0.35112   0.00000   0.00000   0.00000
  54        2PZ         0.00000   0.00000  -0.65366   0.00000  -0.46897
  55        3S          0.00000   0.00000  -0.46395   0.00000  -0.22443
  56        3PX         0.00000   0.00000   0.00000   0.59442   0.00000
  57        3PY        -1.35743   0.66912   0.00000   0.00000   0.00000
  58        3PZ         0.00000   0.00000   1.28457   0.00000   1.10380
  59        4XX         0.00000   0.00000   0.04033   0.00000   0.03427
  60        4YY         0.00000   0.00000  -0.03364   0.00000  -0.01314
  61        4ZZ         0.00000   0.00000   0.01384   0.00000  -0.01904
  62        4XY         0.00000   0.00000   0.00000   0.00000   0.00000
  63        4XZ         0.00000   0.00000   0.00000   0.00364   0.00000
  64        4YZ        -0.01106  -0.09554   0.00000   0.00000   0.00000
  65 7   H  1S          0.09794   0.10951   0.27054   0.00000  -0.13709
  66        2S          0.10701   0.17257   0.14806   0.00000   0.20493
  67 8   H  1S         -0.09794  -0.10951   0.27054   0.00000  -0.13709
  68        2S         -0.10701  -0.17257   0.14806   0.00000   0.20493
  69 9   H  1S         -0.00259   0.29457  -0.16636   0.00000  -0.16758
  70        2S         -0.95653   0.03890  -0.06107   0.00000  -0.23709
  71 10  H  1S          0.00259  -0.29457  -0.16636   0.00000  -0.16758
  72        2S          0.95653  -0.03890  -0.06107   0.00000  -0.23709
                          31        32        33        34        35
                        (B1)--V   (A2)--V   (A1)--V   (A1)--V   (B2)--V
     Eigenvalues --     0.58543   0.58911   0.61678   0.64955   0.65149
   1 1   C  1S          0.00000   0.00000   0.00691  -0.03929   0.00000
   2        2S          0.00000   0.00000  -0.85214   0.18830   0.00000
   3        2PX         0.00191   0.00000   0.00000   0.00000   0.00000
   4        2PY         0.00000   0.00000   0.00000   0.00000  -0.64561
   5        2PZ         0.00000   0.00000  -0.10702  -0.63556   0.00000
   6        3S          0.00000   0.00000   1.24079  -0.34091   0.00000
   7        3PX        -0.02354   0.00000   0.00000   0.00000   0.00000
   8        3PY         0.00000   0.00000   0.00000   0.00000   0.42154
   9        3PZ         0.00000   0.00000  -0.07177   0.71786   0.00000
  10        4XX         0.00000   0.00000   0.00994   0.03044   0.00000
  11        4YY         0.00000   0.00000  -0.08236  -0.05877   0.00000
  12        4ZZ         0.00000   0.00000  -0.09870  -0.01538   0.00000
  13        4XY         0.00000  -0.05278   0.00000   0.00000   0.00000
  14        4XZ        -0.03437   0.00000   0.00000   0.00000   0.00000
  15        4YZ         0.00000   0.00000   0.00000   0.00000  -0.06310
  16 2   C  1S          0.00000   0.00000  -0.02757   0.04446  -0.05614
  17        2S          0.00000   0.00000  -0.45395   0.17497  -0.34639
  18        2PX         0.43132  -0.74677   0.00000   0.00000   0.00000
  19        2PY         0.00000   0.00000  -0.02773   0.17364  -0.28567
  20        2PZ         0.00000   0.00000  -0.04848  -0.26853   0.08216
  21        3S          0.00000   0.00000   0.77834  -0.50534   1.07426
  22        3PX        -0.47698   0.87750   0.00000   0.00000   0.00000
  23        3PY         0.00000   0.00000   0.43026  -0.34862   0.76657
  24        3PZ         0.00000   0.00000   0.10272   0.54979   0.04547
  25        4XX         0.00000   0.00000   0.04232  -0.05358   0.07219
  26        4YY         0.00000   0.00000  -0.06926   0.06759  -0.08931
  27        4ZZ         0.00000   0.00000  -0.06941   0.07186  -0.10276
  28        4XY         0.00319   0.02853   0.00000   0.00000   0.00000
  29        4XZ         0.02352  -0.00336   0.00000   0.00000   0.00000
  30        4YZ         0.00000   0.00000  -0.00467  -0.02216   0.02011
  31 3   H  1S          0.00000   0.00000  -0.22046   0.37125  -0.35635
  32        2S          0.00000   0.00000   0.00250   0.28241   0.03811
  33 4   C  1S          0.00000   0.00000  -0.02757   0.04446   0.05614
  34        2S          0.00000   0.00000  -0.45395   0.17497   0.34639
  35        2PX         0.43132   0.74677   0.00000   0.00000   0.00000
  36        2PY         0.00000   0.00000   0.02773  -0.17364  -0.28567
  37        2PZ         0.00000   0.00000  -0.04848  -0.26853  -0.08216
  38        3S          0.00000   0.00000   0.77834  -0.50534  -1.07426
  39        3PX        -0.47698  -0.87750   0.00000   0.00000   0.00000
  40        3PY         0.00000   0.00000  -0.43026   0.34862   0.76657
  41        3PZ         0.00000   0.00000   0.10272   0.54979  -0.04547
  42        4XX         0.00000   0.00000   0.04232  -0.05358  -0.07219
  43        4YY         0.00000   0.00000  -0.06926   0.06759   0.08931
  44        4ZZ         0.00000   0.00000  -0.06941   0.07186   0.10276
  45        4XY        -0.00319   0.02853   0.00000   0.00000   0.00000
  46        4XZ         0.02352   0.00336   0.00000   0.00000   0.00000
  47        4YZ         0.00000   0.00000   0.00467   0.02216   0.02011
  48 5   H  1S          0.00000   0.00000  -0.22046   0.37125   0.35635
  49        2S          0.00000   0.00000   0.00250   0.28241  -0.03811
  50 6   C  1S          0.00000   0.00000  -0.03576  -0.03726   0.00000
  51        2S          0.00000   0.00000  -0.55409  -0.42477   0.00000
  52        2PX        -0.86978   0.00000   0.00000   0.00000   0.00000
  53        2PY         0.00000   0.00000   0.00000   0.00000  -0.10409
  54        2PZ         0.00000   0.00000  -0.01175  -0.00742   0.00000
  55        3S          0.00000   0.00000   1.34936   0.99547   0.00000
  56        3PX         1.00511   0.00000   0.00000   0.00000   0.00000
  57        3PY         0.00000   0.00000   0.00000   0.00000   0.35012
  58        3PZ         0.00000   0.00000   0.53223   0.52582   0.00000
  59        4XX         0.00000   0.00000   0.04905   0.05194   0.00000
  60        4YY         0.00000   0.00000  -0.08512  -0.07452   0.00000
  61        4ZZ         0.00000   0.00000  -0.09634  -0.09120   0.00000
  62        4XY         0.00000   0.02175   0.00000   0.00000   0.00000
  63        4XZ         0.02506   0.00000   0.00000   0.00000   0.00000
  64        4YZ         0.00000   0.00000   0.00000   0.00000   0.00242
  65 7   H  1S          0.00000   0.00000  -0.26183   0.14708   0.35139
  66        2S          0.00000   0.00000  -0.38155   0.07187   0.65216
  67 8   H  1S          0.00000   0.00000  -0.26183   0.14708  -0.35139
  68        2S          0.00000   0.00000  -0.38155   0.07187  -0.65216
  69 9   H  1S          0.00000   0.00000  -0.30874  -0.28051   0.06415
  70        2S          0.00000   0.00000  -0.40806  -0.38100   0.20643
  71 10  H  1S          0.00000   0.00000  -0.30874  -0.28051  -0.06415
  72        2S          0.00000   0.00000  -0.40806  -0.38100  -0.20643
                          36        37        38        39        40
                        (B1)--V   (A1)--V   (B2)--V   (B2)--V   (A1)--V
     Eigenvalues --     0.72450   0.85805   0.88464   0.93743   0.94424
   1 1   C  1S          0.00000  -0.00583   0.00000   0.00000   0.02016
   2        2S          0.00000  -0.13086   0.00000   0.00000   0.26401
   3        2PX        -1.05983   0.00000   0.00000   0.00000   0.00000
   4        2PY         0.00000   0.00000  -0.44072  -0.04295   0.00000
   5        2PZ         0.00000  -0.35100   0.00000   0.00000   0.50531
   6        3S          0.00000   0.07883   0.00000   0.00000  -0.38640
   7        3PX         1.88341   0.00000   0.00000   0.00000   0.00000
   8        3PY         0.00000   0.00000   3.12270  -0.53380   0.00000
   9        3PZ         0.00000   2.29190   0.00000   0.00000  -2.51432
  10        4XX         0.00000   0.00967   0.00000   0.00000  -0.02231
  11        4YY         0.00000   0.05539   0.00000   0.00000   0.11073
  12        4ZZ         0.00000  -0.10706   0.00000   0.00000  -0.05317
  13        4XY         0.00000   0.00000   0.00000   0.00000   0.00000
  14        4XZ         0.00775   0.00000   0.00000   0.00000   0.00000
  15        4YZ         0.00000   0.00000   0.07058  -0.05553   0.00000
  16 2   C  1S          0.00000   0.01902  -0.01180   0.01308   0.00714
  17        2S          0.00000  -0.33557  -0.10529  -0.12876   0.53773
  18        2PX         0.17985   0.00000   0.00000   0.00000   0.00000
  19        2PY         0.00000   0.18837   0.36914  -0.11331  -0.11400
  20        2PZ         0.00000   0.70744   0.50545   0.48141   0.17918
  21        3S          0.00000   1.24108  -1.57864   0.81711  -1.52826
  22        3PX        -0.68498   0.00000   0.00000   0.00000   0.00000
  23        3PY         0.00000  -0.97347  -0.58218   0.14163   0.62880
  24        3PZ         0.00000  -1.91043  -1.95730  -0.92453  -0.49350
  25        4XX         0.00000  -0.05457   0.03641  -0.06114  -0.01789
  26        4YY         0.00000  -0.03969  -0.13052  -0.04780   0.04305
  27        4ZZ         0.00000   0.05624   0.04269   0.10056   0.04378
  28        4XY         0.00862   0.00000   0.00000   0.00000   0.00000
  29        4XZ         0.00026   0.00000   0.00000   0.00000   0.00000
  30        4YZ         0.00000  -0.02547   0.00553  -0.00909   0.02810
  31 3   H  1S          0.00000   0.37200   0.27948   0.41856  -0.14545
  32        2S          0.00000  -1.70068  -1.27288  -1.22718  -0.02298
  33 4   C  1S          0.00000   0.01902   0.01180  -0.01308   0.00714
  34        2S          0.00000  -0.33557   0.10529   0.12876   0.53773
  35        2PX         0.17985   0.00000   0.00000   0.00000   0.00000
  36        2PY         0.00000  -0.18837   0.36914  -0.11331   0.11400
  37        2PZ         0.00000   0.70744  -0.50545  -0.48141   0.17918
  38        3S          0.00000   1.24108   1.57864  -0.81711  -1.52826
  39        3PX        -0.68498   0.00000   0.00000   0.00000   0.00000
  40        3PY         0.00000   0.97347  -0.58218   0.14163  -0.62880
  41        3PZ         0.00000  -1.91043   1.95730   0.92453  -0.49350
  42        4XX         0.00000  -0.05457  -0.03641   0.06114  -0.01789
  43        4YY         0.00000  -0.03969   0.13052   0.04780   0.04305
  44        4ZZ         0.00000   0.05624  -0.04269  -0.10056   0.04378
  45        4XY        -0.00862   0.00000   0.00000   0.00000   0.00000
  46        4XZ         0.00026   0.00000   0.00000   0.00000   0.00000
  47        4YZ         0.00000   0.02547   0.00553  -0.00909  -0.02810
  48 5   H  1S          0.00000   0.37200  -0.27948  -0.41856  -0.14545
  49        2S          0.00000  -1.70068   1.27288   1.22718  -0.02298
  50 6   C  1S          0.00000  -0.00952   0.00000   0.00000  -0.05086
  51        2S          0.00000   0.04606   0.00000   0.00000  -0.86594
  52        2PX         0.14349   0.00000   0.00000   0.00000   0.00000
  53        2PY         0.00000   0.00000   0.58566  -0.88419   0.00000
  54        2PZ         0.00000   0.15355   0.00000   0.00000   0.56645
  55        3S          0.00000  -1.43119   0.00000   0.00000   2.84942
  56        3PX        -0.60271   0.00000   0.00000   0.00000   0.00000
  57        3PY         0.00000   0.00000  -2.26189   2.51804   0.00000
  58        3PZ         0.00000   0.15969   0.00000   0.00000  -1.97023
  59        4XX         0.00000   0.04366   0.00000   0.00000   0.10197
  60        4YY         0.00000   0.00585   0.00000   0.00000  -0.19541
  61        4ZZ         0.00000  -0.09350   0.00000   0.00000  -0.03434
  62        4XY         0.00000   0.00000   0.00000   0.00000   0.00000
  63        4XZ        -0.02559   0.00000   0.00000   0.00000   0.00000
  64        4YZ         0.00000   0.00000  -0.03488   0.12532   0.00000
  65 7   H  1S          0.00000  -0.06890   0.19519   0.03354   0.17366
  66        2S          0.00000   0.94579  -1.37840  -0.07766  -0.02454
  67 8   H  1S          0.00000  -0.06890  -0.19519  -0.03354   0.17366
  68        2S          0.00000   0.94579   1.37840   0.07766  -0.02454
  69 9   H  1S          0.00000   0.01388   0.09261  -0.25065  -0.38090
  70        2S          0.00000   0.22966  -1.36617   1.72222   0.39620
  71 10  H  1S          0.00000   0.01388  -0.09261   0.25065  -0.38090
  72        2S          0.00000   0.22966   1.36617  -1.72222   0.39620
                          41        42        43        44        45
                        (B2)--V   (A1)--V   (B2)--V   (A1)--V   (B2)--V
     Eigenvalues --     0.96924   0.99390   1.04458   1.07218   1.11271
   1 1   C  1S          0.00000  -0.00994   0.00000   0.00077   0.00000
   2        2S          0.00000  -0.41153   0.00000  -0.02417   0.00000
   3        2PX         0.00000   0.00000   0.00000   0.00000   0.00000
   4        2PY        -0.57887   0.00000   0.08422   0.00000   0.20211
   5        2PZ         0.00000   0.31753   0.00000  -0.09414   0.00000
   6        3S          0.00000   1.27161   0.00000   0.06869   0.00000
   7        3PX         0.00000   0.00000   0.00000   0.00000   0.00000
   8        3PY         3.14274   0.00000  -0.50834   0.00000  -0.99285
   9        3PZ         0.00000  -2.00573   0.00000   0.53515   0.00000
  10        4XX         0.00000  -0.00022   0.00000   0.00018   0.00000
  11        4YY         0.00000  -0.03431   0.00000   0.05656   0.00000
  12        4ZZ         0.00000  -0.00002   0.00000  -0.08565   0.00000
  13        4XY         0.00000   0.00000   0.00000   0.00000   0.00000
  14        4XZ         0.00000   0.00000   0.00000   0.00000   0.00000
  15        4YZ        -0.09448   0.00000   0.04944   0.00000   0.04614
  16 2   C  1S          0.02989   0.01886   0.00457  -0.00038  -0.00862
  17        2S          0.64484  -0.49483  -1.07802   0.50503  -0.62710
  18        2PX         0.00000   0.00000   0.00000   0.00000   0.00000
  19        2PY        -0.46842  -0.45429  -0.35370   0.17391   0.11246
  20        2PZ         0.09172  -0.02901  -0.21045   0.06558   0.27123
  21        3S         -2.64170   0.25536   2.64824  -1.04298   1.65394
  22        3PX         0.00000   0.00000   0.00000   0.00000   0.00000
  23        3PY         1.64123   1.30267   0.83732  -0.57455  -1.24952
  24        3PZ        -0.89166   0.38487   0.99830  -0.44522  -1.30850
  25        4XX        -0.06180  -0.09189  -0.08429   0.03649  -0.01943
  26        4YY         0.06671  -0.02227  -0.06487   0.01461   0.06574
  27        4ZZ         0.07818   0.02759   0.00894   0.01686  -0.14470
  28        4XY         0.00000   0.00000   0.00000   0.00000   0.00000
  29        4XZ         0.00000   0.00000   0.00000   0.00000   0.00000
  30        4YZ         0.11460   0.11694   0.05161  -0.05006   0.06758
  31 3   H  1S          0.21908   0.32599   0.37014  -0.14997  -0.30127
  32        2S         -0.30320  -0.12807  -0.37392   0.04295  -0.83499
  33 4   C  1S         -0.02989   0.01886  -0.00457  -0.00038   0.00862
  34        2S         -0.64484  -0.49483   1.07802   0.50503   0.62710
  35        2PX         0.00000   0.00000   0.00000   0.00000   0.00000
  36        2PY        -0.46842   0.45429  -0.35370  -0.17391   0.11246
  37        2PZ        -0.09172  -0.02901   0.21045   0.06558  -0.27123
  38        3S          2.64170   0.25536  -2.64824  -1.04298  -1.65394
  39        3PX         0.00000   0.00000   0.00000   0.00000   0.00000
  40        3PY         1.64123  -1.30267   0.83732   0.57455  -1.24952
  41        3PZ         0.89166   0.38487  -0.99830  -0.44522   1.30850
  42        4XX         0.06180  -0.09189   0.08429   0.03649   0.01943
  43        4YY        -0.06671  -0.02227   0.06487   0.01461  -0.06574
  44        4ZZ        -0.07818   0.02759  -0.00894   0.01686   0.14470
  45        4XY         0.00000   0.00000   0.00000   0.00000   0.00000
  46        4XZ         0.00000   0.00000   0.00000   0.00000   0.00000
  47        4YZ         0.11460  -0.11694   0.05161   0.05006   0.06758
  48 5   H  1S         -0.21908   0.32599  -0.37014  -0.14997   0.30127
  49        2S          0.30320  -0.12807   0.37392   0.04295   0.83499
  50 6   C  1S          0.00000   0.00692   0.00000   0.00922   0.00000
  51        2S          0.00000  -0.70609   0.00000  -1.38677   0.00000
  52        2PX         0.00000   0.00000   0.00000   0.00000   0.00000
  53        2PY         0.25941   0.00000   0.31574   0.00000  -0.14803
  54        2PZ         0.00000  -0.21105   0.00000  -0.40840   0.00000
  55        3S          0.00000   2.19420   0.00000   2.82947   0.00000
  56        3PX         0.00000   0.00000   0.00000   0.00000   0.00000
  57        3PY        -0.65598   0.00000  -1.42864   0.00000   1.59826
  58        3PZ         0.00000  -0.26965   0.00000   0.81323   0.00000
  59        4XX         0.00000  -0.07752   0.00000  -0.14132   0.00000
  60        4YY         0.00000   0.01401   0.00000   0.09713   0.00000
  61        4ZZ         0.00000  -0.03793   0.00000  -0.16590   0.00000
  62        4XY         0.00000   0.00000   0.00000   0.00000   0.00000
  63        4XZ         0.00000   0.00000   0.00000   0.00000   0.00000
  64        4YZ        -0.10323   0.00000   0.00922   0.00000  -0.14578
  65 7   H  1S         -0.31984   0.52579  -0.28146  -0.18959  -0.48616
  66        2S          0.58355  -1.37025   1.64722   1.03317  -0.39065
  67 8   H  1S          0.31984   0.52579   0.28146  -0.18959   0.48616
  68        2S         -0.58355  -1.37025  -1.64722   1.03317   0.39065
  69 9   H  1S          0.37968   0.23697  -0.10775   0.54519   0.34848
  70        2S         -0.68827  -0.47840  -0.86132  -1.47250   0.55079
  71 10  H  1S         -0.37968   0.23697   0.10775   0.54519  -0.34848
  72        2S          0.68827  -0.47840   0.86132  -1.47250  -0.55079
                          46        47        48        49        50
                        (A1)--V   (B1)--V   (A2)--V   (B2)--V   (A1)--V
     Eigenvalues --     1.16592   1.34908   1.35596   1.38673   1.39822
   1 1   C  1S         -0.07852   0.00000   0.00000   0.00000   0.00343
   2        2S         -1.84577   0.00000   0.00000   0.00000  -0.16689
   3        2PX         0.00000   0.07436   0.00000   0.00000   0.00000
   4        2PY         0.00000   0.00000   0.00000  -0.65667   0.00000
   5        2PZ         0.08156   0.00000   0.00000   0.00000  -0.77225
   6        3S          7.20781   0.00000   0.00000   0.00000  -0.46308
   7        3PX         0.00000  -0.08120   0.00000   0.00000   0.00000
   8        3PY         0.00000   0.00000   0.00000   7.14023   0.00000
   9        3PZ        -0.86316   0.00000   0.00000   0.00000   6.94733
  10        4XX         0.06034   0.00000   0.00000   0.00000  -0.05043
  11        4YY        -0.07437   0.00000   0.00000   0.00000   0.01030
  12        4ZZ        -0.14920   0.00000   0.00000   0.00000  -0.00939
  13        4XY         0.00000   0.00000   0.56907   0.00000   0.00000
  14        4XZ         0.00000   0.58351   0.00000   0.00000   0.00000
  15        4YZ         0.00000   0.00000   0.00000   0.03444   0.00000
  16 2   C  1S          0.03122   0.00000   0.00000   0.03162  -0.01414
  17        2S          0.90230   0.00000   0.00000   0.22597  -0.10288
  18        2PX         0.00000   0.05244  -0.11114   0.00000   0.00000
  19        2PY         0.01192   0.00000   0.00000   0.16227  -0.28120
  20        2PZ         0.01521   0.00000   0.00000  -0.18925  -0.03503
  21        3S         -3.95076   0.00000   0.00000  -4.96572   2.53536
  22        3PX         0.00000   0.03511   0.00158   0.00000   0.00000
  23        3PY         0.95029   0.00000   0.00000   0.59290  -2.03302
  24        3PZ        -0.53347   0.00000   0.00000  -2.43358  -1.79704
  25        4XX         0.07007   0.00000   0.00000  -0.01886  -0.06332
  26        4YY        -0.03668   0.00000   0.00000   0.00445   0.13259
  27        4ZZ         0.05726   0.00000   0.00000   0.01328  -0.09075
  28        4XY         0.00000   0.31492  -0.32966   0.00000   0.00000
  29        4XZ         0.00000   0.03581   0.30807   0.00000   0.00000
  30        4YZ         0.05762   0.00000   0.00000   0.15721   0.02075
  31 3   H  1S          0.12772   0.00000   0.00000  -0.28173  -0.58251
  32        2S          0.38116   0.00000   0.00000  -0.40919  -0.86974
  33 4   C  1S          0.03122   0.00000   0.00000  -0.03162  -0.01414
  34        2S          0.90230   0.00000   0.00000  -0.22597  -0.10288
  35        2PX         0.00000   0.05244   0.11114   0.00000   0.00000
  36        2PY        -0.01192   0.00000   0.00000   0.16227   0.28120
  37        2PZ         0.01521   0.00000   0.00000   0.18925  -0.03503
  38        3S         -3.95076   0.00000   0.00000   4.96572   2.53536
  39        3PX         0.00000   0.03511  -0.00158   0.00000   0.00000
  40        3PY        -0.95029   0.00000   0.00000   0.59290   2.03302
  41        3PZ        -0.53347   0.00000   0.00000   2.43358  -1.79704
  42        4XX         0.07007   0.00000   0.00000   0.01886  -0.06332
  43        4YY        -0.03668   0.00000   0.00000  -0.00445   0.13259
  44        4ZZ         0.05726   0.00000   0.00000  -0.01328  -0.09075
  45        4XY         0.00000  -0.31492  -0.32966   0.00000   0.00000
  46        4XZ         0.00000   0.03581  -0.30807   0.00000   0.00000
  47        4YZ        -0.05762   0.00000   0.00000   0.15721  -0.02075
  48 5   H  1S          0.12772   0.00000   0.00000   0.28173  -0.58251
  49        2S          0.38116   0.00000   0.00000   0.40919  -0.86974
  50 6   C  1S          0.02250   0.00000   0.00000   0.00000   0.04677
  51        2S          0.66187   0.00000   0.00000   0.00000   0.30375
  52        2PX         0.00000  -0.05742   0.00000   0.00000   0.00000
  53        2PY         0.00000   0.00000   0.00000  -0.30816   0.00000
  54        2PZ         0.07501   0.00000   0.00000   0.00000   0.39321
  55        3S         -2.43963   0.00000   0.00000   0.00000  -4.79928
  56        3PX         0.00000  -0.02874   0.00000   0.00000   0.00000
  57        3PY         0.00000   0.00000   0.00000  -2.52594   0.00000
  58        3PZ         0.38615   0.00000   0.00000   0.00000   1.70850
  59        4XX         0.07014   0.00000   0.00000   0.00000  -0.05601
  60        4YY         0.02650   0.00000   0.00000   0.00000   0.10188
  61        4ZZ        -0.06493   0.00000   0.00000   0.00000  -0.06311
  62        4XY         0.00000   0.00000   0.15620   0.00000   0.00000
  63        4XZ         0.00000  -0.49891   0.00000   0.00000   0.00000
  64        4YZ         0.00000   0.00000   0.00000   0.12989   0.00000
  65 7   H  1S          0.10556   0.00000   0.00000  -0.44833   0.49528
  66        2S          0.51256   0.00000   0.00000  -0.84297   0.76328
  67 8   H  1S          0.10556   0.00000   0.00000   0.44833   0.49528
  68        2S          0.51256   0.00000   0.00000   0.84297   0.76328
  69 9   H  1S          0.05843   0.00000   0.00000  -0.64444   0.10255
  70        2S          0.48722   0.00000   0.00000  -0.85122   0.23007
  71 10  H  1S          0.05843   0.00000   0.00000   0.64444   0.10255
  72        2S          0.48722   0.00000   0.00000   0.85122   0.23007
                          51        52        53        54        55
                        (A2)--V   (A2)--V   (B1)--V   (A1)--V   (A1)--V
     Eigenvalues --     1.63633   1.65041   1.65043   1.77157   1.88517
   1 1   C  1S          0.00000   0.00000   0.00000  -0.00041  -0.03374
   2        2S          0.00000   0.00000   0.00000  -0.58241  -0.58328
   3        2PX         0.00000   0.00000  -0.01822   0.00000   0.00000
   4        2PY         0.00000   0.00000   0.00000   0.00000   0.00000
   5        2PZ         0.00000   0.00000   0.00000  -0.17122   0.24484
   6        3S          0.00000   0.00000   0.00000   1.22935   1.59369
   7        3PX         0.00000   0.00000   0.02983   0.00000   0.00000
   8        3PY         0.00000   0.00000   0.00000   0.00000   0.00000
   9        3PZ         0.00000   0.00000   0.00000  -0.31335  -1.42159
  10        4XX         0.00000   0.00000   0.00000  -0.37707  -0.47081
  11        4YY         0.00000   0.00000   0.00000  -0.21759   0.47439
  12        4ZZ         0.00000   0.00000   0.00000   0.57865  -0.13463
  13        4XY        -0.02507  -0.01735   0.00000   0.00000   0.00000
  14        4XZ         0.00000   0.00000  -0.03800   0.00000   0.00000
  15        4YZ         0.00000   0.00000   0.00000   0.00000   0.00000
  16 2   C  1S          0.00000   0.00000   0.00000  -0.00592  -0.01416
  17        2S          0.00000   0.00000   0.00000   0.17448  -0.16633
  18        2PX         0.03705   0.03663  -0.03460   0.00000   0.00000
  19        2PY         0.00000   0.00000   0.00000   0.11433   0.15876
  20        2PZ         0.00000   0.00000   0.00000   0.14997  -0.21670
  21        3S          0.00000   0.00000   0.00000  -0.53479  -0.45933
  22        3PX        -0.05110  -0.05799   0.03656   0.00000   0.00000
  23        3PY         0.00000   0.00000   0.00000   0.39259   0.50346
  24        3PZ         0.00000   0.00000   0.00000  -0.00876   0.26431
  25        4XX         0.00000   0.00000   0.00000  -0.16452  -0.51624
  26        4YY         0.00000   0.00000   0.00000   0.17881   0.05294
  27        4ZZ         0.00000   0.00000   0.00000  -0.02810   0.35129
  28        4XY         0.05426   0.46821   0.23533   0.00000   0.00000
[...]
     9  H   -0.022011   0.005739  -0.000185  -0.009465   0.000012   0.355247
    10  H   -0.022011  -0.009465   0.000012   0.005739  -0.000185   0.355247
               7          8          9         10
     1  C   -0.021909  -0.021909  -0.022011  -0.022011
     2  C    0.005733   0.355255   0.005739  -0.009465
     3  H    0.000012  -0.039713  -0.000185   0.000012
     4  C    0.355255   0.005733  -0.009465   0.005739
     5  H   -0.039713   0.000012   0.000012  -0.000185
     6  C   -0.009480  -0.009480   0.355247   0.355247
     7  H    0.559748  -0.000185   0.005958   0.000013
     8  H   -0.000185   0.559748   0.000013   0.005958
     9  H    0.005958   0.000013   0.559638  -0.039516
    10  H    0.000013   0.005958  -0.039516   0.559638
          Atomic-Atomic Spin Densities.
               1          2          3          4          5          6
     1  C   -0.278316  -0.013800  -0.001413  -0.013800  -0.001413  -0.013867
     2  C   -0.013800   0.926805  -0.002308  -0.024826   0.000593  -0.024832
     3  H   -0.001413  -0.002308  -0.040850   0.000593  -0.000350  -0.000073
     4  C   -0.013800  -0.024826   0.000593   0.926805  -0.002308  -0.024832
     5  H   -0.001413   0.000593  -0.000350  -0.002308  -0.040850  -0.000073
     6  C   -0.013867  -0.024832  -0.000073  -0.024832  -0.000073   0.927929
     7  H   -0.001416  -0.000074  -0.000011  -0.002306   0.002420   0.000594
     8  H   -0.001416  -0.002306   0.002420  -0.000074  -0.000011   0.000594
     9  H   -0.001415  -0.000074   0.000008   0.000597  -0.000012  -0.002309
    10  H   -0.001415   0.000597  -0.000012  -0.000074   0.000008  -0.002309
               7          8          9         10
     1  C   -0.001416  -0.001416  -0.001415  -0.001415
     2  C   -0.000074  -0.002306  -0.000074   0.000597
     3  H   -0.000011   0.002420   0.000008  -0.000012
     4  C   -0.002306  -0.000074   0.000597  -0.000074
     5  H    0.002420  -0.000011  -0.000012   0.000008
     6  C    0.000594   0.000594  -0.002309  -0.002309
     7  H   -0.040852   0.000008  -0.000351  -0.000012
     8  H    0.000008  -0.040852  -0.000012  -0.000351
     9  H   -0.000351  -0.000012  -0.040898   0.002411
    10  H   -0.000012  -0.000351   0.002411  -0.040898
 Mulliken charges and spin densities:
               1          2
     1  C    0.290382  -0.328272
     2  C   -0.386044   0.859775
     3  H    0.144586  -0.041996
     4  C   -0.386044   0.859775
     5  H    0.144586  -0.041996
     6  C   -0.385742   0.860823
     7  H    0.144568  -0.042000
     8  H    0.144568  -0.042000
     9  H    0.144570  -0.042054
    10  H    0.144570  -0.042054
 Sum of Mulliken charges =  -0.00000   2.00000
 Mulliken charges and spin densities with hydrogens summed into heavy atoms:
               1          2
     1  C    0.290382  -0.328272
     2  C   -0.096890   0.775779
     4  C   -0.096890   0.775779
     6  C   -0.096603   0.776715
 Electronic spatial extent (au):  <R**2>=            286.0847
 Charge=             -0.0000 electrons
 Dipole moment (field-independent basis, Debye):
    X=              0.0000    Y=             -0.0000    Z=             -0.0010  Tot=              0.0010
 Quadrupole moment (field-independent basis, Debye-Ang):
   XX=            -27.9739   YY=            -23.0875   ZZ=            -23.0996
   XY=              0.0000   XZ=              0.0000   YZ=              0.0000
 Traceless Quadrupole moment (field-independent basis, Debye-Ang):
   XX=             -3.2536   YY=              1.6328   ZZ=              1.6208
   XY=              0.0000   XZ=              0.0000   YZ=              0.0000
 Octapole moment (field-independent basis, Debye-Ang**2):
  XXX=              0.0000  YYY=             -0.0000  ZZZ=             -2.0128  XYY=              0.0000
  XXY=              0.0000  XXZ=             -0.0020  XZZ=              0.0000  YZZ=             -0.0000
  YYZ=              1.9918  XYZ=              0.0000
 Hexadecapole moment (field-independent basis, Debye-Ang**3):
 XXXX=            -29.0411 YYYY=           -171.8302 ZZZZ=           -171.8008 XXXY=             -0.0000
 XXXZ=             -0.0000 YYYX=             -0.0000 YYYZ=             -0.0000 ZZZX=             -0.0000
 ZZZY=              0.0000 XXYY=            -38.6630 XXZZ=            -38.6449 YYZZ=            -57.2443
 XXYZ=             -0.0000 YYXZ=             -0.0000 ZZXY=             -0.0000
 N-N= 1.052586498874D+02 E-N=-5.708714626496D+02  KE= 1.543829066846D+02
 Symmetry A1   KE= 1.084813519088D+02
 Symmetry A2   KE= 1.223019780328D+00
 Symmetry B1   KE= 3.192785803338D+00
 Symmetry B2   KE= 4.148574919216D+01
 Symmetry A1   SP=-2.648684021228D-16
 Symmetry A2   SP= 1.000000000000D+00
 Symmetry B1   SP= 1.000000000000D+00
 Symmetry B2   SP= 1.719672554261D-15
 Orbital energies and kinetic energies (alpha):
                                 1                 2
   1         (A1)--O         -10.199230         15.884074
   2         (A1)--O         -10.191135         15.871665
   3         (B2)--O         -10.191100         15.871625
   4         (A1)--O         -10.191074         15.871815
   5         (A1)--O          -0.814688          1.510650
   6         (B2)--O          -0.680508          1.452312
   7         (A1)--O          -0.680383          1.452156
   8         (A1)--O          -0.530544          1.331163
   9         (B2)--O          -0.463353          1.051211
  10         (A1)--O          -0.463148          1.051178
  11         (B2)--O          -0.388304          1.097187
  12         (B2)--O          -0.374129          1.302613
  13         (A1)--O          -0.373783          1.302756
  14         (B1)--O          -0.347355          0.991007
  15         (A2)--O          -0.203144          1.223020
  16         (B1)--O          -0.203134          1.223093
  17         (B1)--V           0.078165          1.501822
  18         (A1)--V           0.099505          0.921169
  19         (A1)--V           0.153114          0.989419
  20         (B2)--V           0.153140          0.985019
  21         (B2)--V           0.158766          1.109973
  22         (A1)--V           0.158815          1.106978
  23         (B2)--V           0.225958          1.022633
  24         (A1)--V           0.252717          1.596444
  25         (A1)--V           0.367188          1.248845
  26         (B2)--V           0.367478          1.248292
  27         (B1)--V           0.504158          2.041093
  28         (A1)--V           0.513875          1.796121
  29         (B2)--V           0.514135          1.796109
  30         (A1)--V           0.571081          2.392837
  31         (A2)--V           0.583755          2.068387
  32         (B1)--V           0.583772          2.068463
  33         (A1)--V           0.621787          1.815910
  34         (A1)--V           0.648552          2.014555
  35         (B2)--V           0.648811          2.014545
  36         (B1)--V           0.726558          2.228380
  37         (B2)--V           0.828908          2.683372
  38         (A1)--V           0.828925          2.683588
  39         (B2)--V           0.865211          2.701009
  40         (A1)--V           0.907547          2.624092
  41         (A1)--V           0.948746          2.735856
  42         (B2)--V           0.948993          2.738808
  43         (A1)--V           1.007924          2.317336
  44         (B2)--V           1.008094          2.318980
  45         (B2)--V           1.136634          2.189198
  46         (A1)--V           1.160530          2.155499
  47         (A2)--V           1.344644          2.505115
  48         (B1)--V           1.344695          2.504828
  49         (A1)--V           1.363182          2.603875
  50         (B2)--V           1.363451          2.604045
  51         (A2)--V           1.657590          2.811062
  52         (A2)--V           1.658788          2.817262
  53         (B1)--V           1.658892          2.817330
  54         (A1)--V           1.829620          3.055512
  55         (A1)--V           1.889136          3.332720
  56         (B2)--V           1.889418          3.332472
  57         (B1)--V           1.962597          3.143851
  58         (B2)--V           2.107499          3.430339
  59         (A1)--V           2.108510          3.431739
  60         (A1)--V           2.193860          3.559268
  61         (B2)--V           2.200598          3.595754
  62         (B1)--V           2.398735          3.651522
  63         (A2)--V           2.399612          3.652693
  64         (B2)--V           2.403521          3.958244
  65         (A1)--V           2.403577          3.957885
  66         (A1)--V           2.590862          4.393512
  67         (B2)--V           2.955084          4.701873
  68         (A1)--V           2.956045          4.702502
  69         (A1)--V           4.052196         10.117843
  70         (A1)--V           4.128797         10.009843
  71         (B2)--V           4.128874         10.010165
  72         (A1)--V           4.486290         10.077251
 Orbital energies and kinetic energies (beta):
                                 1                 2
   1         (A1)--O         -10.203428         15.878564
   2         (A1)--O         -10.180067         15.889389
   3         (B2)--O         -10.180041         15.889396
   4         (A1)--O         -10.180036         15.889261
   5         (A1)--O          -0.799741          1.520603
   6         (B2)--O          -0.650436          1.403299
   7         (A1)--O          -0.650286          1.403066
   8         (A1)--O          -0.520258          1.286547
   9         (B2)--O          -0.455402          1.042953
  10         (A1)--O          -0.455195          1.042919
  11         (B2)--O          -0.381083          1.079757
  12         (B2)--O          -0.367112          1.295397
  13         (A1)--O          -0.366762          1.295544
  14         (B1)--O          -0.304065          0.978686
  15         (A2)--V          -0.057842          1.084601
  16         (B1)--V          -0.057745          1.084567
  17         (A1)--V           0.109568          0.917923
  18         (B1)--V           0.112286          1.394169
  19         (B2)--V           0.158527          0.961398
  20         (A1)--V           0.158547          0.963532
  21         (B2)--V           0.170016          1.142494
  22         (A1)--V           0.170041          1.141797
  23         (B2)--V           0.231047          1.025763
  24         (A1)--V           0.258038          1.583185
  25         (A1)--V           0.371551          1.243270
  26         (B2)--V           0.371846          1.242707
  27         (A1)--V           0.518589          1.786172
  28         (B2)--V           0.518841          1.786138
  29         (B1)--V           0.557817          2.171020
  30         (A1)--V           0.577297          2.352409
  31         (A1)--V           0.636380          1.865847
  32         (A2)--V           0.640041          2.201983
  33         (B1)--V           0.640106          2.202184
  34         (A1)--V           0.663212          2.070324
  35         (B2)--V           0.663489          2.070323
  36         (B1)--V           0.722960          2.215359
  37         (B2)--V           0.838743          2.729457
  38         (A1)--V           0.838744          2.729756
  39         (B2)--V           0.870022          2.717909
  40         (A1)--V           0.919745          2.654533
  41         (A1)--V           0.958257          2.732048
  42         (B2)--V           0.958470          2.735023
  43         (A1)--V           1.029681          2.285102
  44         (B2)--V           1.029826          2.286819
  45         (B2)--V           1.147105          2.188123
  46         (A1)--V           1.169296          2.175408
  47         (A1)--V           1.367455          2.599985
  48         (B2)--V           1.367728          2.600159
  49         (A2)--V           1.370326          2.510629
  50         (B1)--V           1.370377          2.510323
  51         (A2)--V           1.712408          2.811059
  52         (A2)--V           1.712937          2.817264
  53         (B1)--V           1.713010          2.817333
  54         (A1)--V           1.868090          3.044231
  55         (A1)--V           1.897845          3.336273
  56         (B2)--V           1.898083          3.335981
  57         (B1)--V           2.010344          3.146919
  58         (B2)--V           2.150527          3.451981
  59         (A1)--V           2.151541          3.453462
  60         (A1)--V           2.201249          3.553743
  61         (B2)--V           2.209578          3.594229
  62         (B1)--V           2.419488          3.650829
  63         (A2)--V           2.420346          3.652003
  64         (B2)--V           2.428460          3.923509
  65         (A1)--V           2.428522          3.923040
  66         (A1)--V           2.600918          4.388986
  67         (B2)--V           2.958503          4.699745
  68         (A1)--V           2.959470          4.700360
  69         (A1)--V           4.067494         10.131461
  70         (A1)--V           4.157269         10.012902
  71         (B2)--V           4.157324         10.013220
  72         (A1)--V           4.493225         10.064414
 Total kinetic energy from orbitals= 1.543829066846D+02
                          Isotropic Fermi Contact Couplings
        Atom                 a.u.       MegaHertz       Gauss      10(-4) cm-1
     1  C(13)             -0.06222     -34.97625     -12.48040     -11.66682
     2  C(13)              0.08790      49.40788      17.62996      16.48070
     3  H(1)              -0.01265     -28.28142     -10.09152      -9.43367
     4  C(13)              0.08790      49.40788      17.62996      16.48070
     5  H(1)              -0.01265     -28.28142     -10.09152      -9.43367
     6  C(13)              0.08807      49.50164      17.66342      16.51197
     7  H(1)              -0.01266     -28.28626     -10.09324      -9.43528
     8  H(1)              -0.01266     -28.28626     -10.09324      -9.43528
     9  H(1)              -0.01267     -28.31964     -10.10515      -9.44641
    10  H(1)              -0.01267     -28.31964     -10.10515      -9.44641
 --------------------------------------------------------
       Center         ----  Spin Dipole Couplings  ----
                      3XX-RR        3YY-RR        3ZZ-RR
 --------------------------------------------------------
     1   Atom       -0.224658      0.112424      0.112234
     2   Atom        0.846381     -0.423120     -0.423261
     3   Atom       -0.009520     -0.050129      0.059649
     4   Atom        0.846381     -0.423120     -0.423261
     5   Atom       -0.009520     -0.050129      0.059649
     6   Atom        0.847328     -0.423913     -0.423415
     7   Atom       -0.009534      0.037766     -0.028231
     8   Atom       -0.009534      0.037766     -0.028231
     9   Atom       -0.009539      0.026783     -0.017244
    10   Atom       -0.009539      0.026783     -0.017244
 --------------------------------------------------------
                        XY            XZ            YZ
 --------------------------------------------------------
     1   Atom       -0.000000     -0.000000     -0.000000
     2   Atom        0.000000      0.000000     -0.000159
     3   Atom        0.000000     -0.000000     -0.006544
     4   Atom       -0.000000      0.000000      0.000159
     5   Atom        0.000000     -0.000000      0.006544
     6   Atom        0.000000      0.000000      0.000000
     7   Atom        0.000000     -0.000000     -0.044303
     8   Atom       -0.000000     -0.000000      0.044303
     9   Atom       -0.000000      0.000000     -0.050732
    10   Atom       -0.000000     -0.000000      0.050732
 --------------------------------------------------------


 ---------------------------------------------------------------------------------
              Anisotropic Spin Dipole Couplings in Principal Axis System
 ---------------------------------------------------------------------------------

       Atom             a.u.   MegaHertz   Gauss  10(-4) cm-1        Axes

              Baa    -0.2247   -30.147   -10.757   -10.056  1.0000  0.0000 -0.0000
     1 C(13)  Bbb     0.1122    15.061     5.374     5.024  0.0000  0.0000  1.0000
              Bcc     0.1124    15.086     5.383     5.032 -0.0000  1.0000 -0.0000
 
              Baa    -0.4234   -56.811   -20.272   -18.950 -0.0000  0.5453  0.8382
     2 C(13)  Bbb    -0.4230   -56.765   -20.255   -18.935 -0.0000  0.8382 -0.5453
              Bcc     0.8464   113.576    40.527    37.885  1.0000  0.0000  0.0000
 
              Baa    -0.0505   -26.954    -9.618    -8.991 -0.0000  0.9982  0.0593
     3 H(1)   Bbb    -0.0095    -5.079    -1.812    -1.694  1.0000  0.0000  0.0000
              Bcc     0.0600    32.033    11.430    10.685 -0.0000 -0.0593  0.9982
 
              Baa    -0.4234   -56.811   -20.272   -18.950 -0.0000 -0.5453  0.8382
     4 C(13)  Bbb    -0.4230   -56.765   -20.255   -18.935  0.0000  0.8382  0.5453
              Bcc     0.8464   113.576    40.527    37.885  1.0000 -0.0000  0.0000
 
              Baa    -0.0505   -26.954    -9.618    -8.991 -0.0000  0.9982 -0.0593
     5 H(1)   Bbb    -0.0095    -5.079    -1.812    -1.694  1.0000  0.0000  0.0000
              Bcc     0.0600    32.033    11.430    10.685 -0.0000  0.0593  0.9982
 
              Baa    -0.4239   -56.885   -20.298   -18.975 -0.0000  1.0000 -0.0000
     6 C(13)  Bbb    -0.4234   -56.818   -20.274   -18.953  0.0000  0.0000  1.0000
              Bcc     0.8473   113.703    40.572    37.927  1.0000  0.0000 -0.0000
 
              Baa    -0.0505   -26.931    -9.610    -8.983  0.0000  0.4487  0.8937
     7 H(1)   Bbb    -0.0095    -5.087    -1.815    -1.697  1.0000 -0.0000  0.0000
              Bcc     0.0600    32.018    11.425    10.680  0.0000  0.8937 -0.4487
 
              Baa    -0.0505   -26.931    -9.610    -8.983  0.0000 -0.4487  0.8937
     8 H(1)   Bbb    -0.0095    -5.087    -1.815    -1.697  1.0000  0.0000  0.0000
              Bcc     0.0600    32.018    11.425    10.680 -0.0000  0.8937  0.4487
 
              Baa    -0.0505   -26.962    -9.621    -8.994 -0.0000  0.5486  0.8361
     9 H(1)   Bbb    -0.0095    -5.089    -1.816    -1.698  1.0000  0.0000  0.0000
              Bcc     0.0601    32.051    11.437    10.691 -0.0000  0.8361 -0.5486
 
              Baa    -0.0505   -26.962    -9.621    -8.994 -0.0000 -0.5486  0.8361
    10 H(1)   Bbb    -0.0095    -5.089    -1.816    -1.698  1.0000  0.0000  0.0000
              Bcc     0.0601    32.051    11.437    10.691 -0.0000  0.8361  0.5486
 

 ---------------------------------------------------------------------------------

 Unable to Open any file for archive entry.
 1\1\GINC-DESKTOP-ROGTOBM\FOpt\UB3LYP\6-31G(d)\C4H6(3)\FLY\27-Oct-2022\
 0\\# opt b3lyp/6-31g(d) pop=full gfinput\\Title Card Required\\0,3\C,0
 .,0.,0.0086221655\C,1.2257054343,0.,0.7155585374\H,1.2489367423,0.,1.8
 00460133\C,-1.2257054343,0.,0.7155585374\H,-1.2489367423,0.,1.80046013
 3\C,0.,0.,-1.4071018545\H,-2.1764118167,0.,0.1920777106\H,2.1764118167
 ,0.,0.1920777106\H,-0.9292279036,0.,-1.9677565365\H,0.9292279036,0.,-1
 .9677565365\\Version=ES64L-G16RevC.02\State=3-B2\HF=-155.9272453\S2=2.
 036236\S2-1=0.\S2A=2.000327\RMSD=2.153e-09\RMSF=1.594e-04\Dipole=0.,0.
 ,0.0003853\Quadrupole=1.2139499,-2.4189417,1.2049918,0.,0.,0.\PG=C02V 
 [C2(C1C1),SGV(C2H6)]\\@
 The archive entry for this job was punched.


 THE RED LIGHT IS ALWAYS LONGER THAN THE GREEN LIGHT.

                     -- PETER'S THEORY OF RELATIVITY
 Job cpu time:       0 days  0 hours  0 minutes 25.4 seconds.
 Elapsed time:       0 days  0 hours  0 minutes 25.2 seconds.
 File lengths (MBytes):  RWF=     10 Int=      0 D2E=      0 Chk=      2 Scr=      1
 Normal termination of Gaussian 16 at Thu Oct 27 23:53:12 2022.
