 Entering Gaussian System, Link 0=g16
 Input=CH2OP.gjf
 Output=CH2OP.log
 Initial command:
 /home/fly/gaussian/g16/l1.exe "/home/fly/gaussian/scr/Gau-173.inp" -scrdir="/home/fly/gaussian/scr/"
 Entering Link 1 = /home/fly/gaussian/g16/l1.exe PID=       175.
  
 Copyright (c) 1988-2021, Gaussian, Inc.  All Rights Reserved.
  
 This is part of the Gaussian(R) 16 program.  It is based on
 the Gaussian(R) 09 system (copyright 2009, Gaussian, Inc.),
 the Gaussian(R) 03 system (copyright 2003, Gaussian, Inc.),
 the Gaussian(R) 98 system (copyright 1998, Gaussian, Inc.),
 the Gaussian(R) 94 system (copyright 1995, Gaussian, Inc.),
 the Gaussian 92(TM) system (copyright 1992, Gaussian, Inc.),
 the Gaussian 90(TM) system (copyright 1990, Gaussian, Inc.),
 the Gaussian 88(TM) system (copyright 1988, Gaussian, Inc.),
 the Gaussian 86(TM) system (copyright 1986, Carnegie Mellon
 University), and the Gaussian 82(TM) system (copyright 1983,
 Carnegie Mellon University). Gaussian is a federally registered
 trademark of Gaussian, Inc.
  
 This software contains proprietary and confidential information,
 including trade secrets, belonging to Gaussian, Inc.
  
 This software is provided under written license and may be
 used, copied, transmitted, or stored only in accord with that
 written license.
  
 The following legend is applicable only to US Government
 contracts under FAR:
  
                    RESTRICTED RIGHTS LEGEND
  
 Use, reproduction and disclosure by the US Government is
 subject to restrictions as set forth in subparagraphs (a)
 and (c) of the Commercial Computer Software - Restricted
 Rights clause in FAR 52.227-19.
  
 Gaussian, Inc.
 340 Quinnipiac St., Bldg. 40, Wallingford CT 06492
  
  
 ---------------------------------------------------------------
 Warning -- This program may not be used in any manner that
 competes with the business of Gaussian, Inc. or will provide
 assistance to any competitor of Gaussian, Inc.  The licensee
 of this program is prohibited from giving any competitor of
 Gaussian, Inc. access to this program.  By using this program,
 the user acknowledges that Gaussian, Inc. is engaged in the
 business of creating and licensing software in the field of
 computational chemistry and represents and warrants to the
 licensee that it is not a competitor of Gaussian, Inc. and that
 it will not use this program in any manner prohibited above.
 ---------------------------------------------------------------
  

 Cite this work as:
 Gaussian 16, Revision C.02,
 M. J. Frisch, G. W. Trucks, H. B. Schlegel, G. E. Scuseria, 
 M. A. Robb, J. R. Cheeseman, G. Scalmani, V. Barone, 
 G. A. Petersson, H. Nakatsuji, X. Li, M. Caricato, A. V. Marenich, 
 J. Bloino, B. G. Janesko, R. Gomperts, B. Mennucci, H. P. Hratchian, 
 J. V. Ortiz, A. F. Izmaylov, J. L. Sonnenberg, D. Williams-Young, 
 F. Ding, F. Lipparini, F. Egidi, J. Goings, B. Peng, A. Petrone, 
 T. Henderson, D. Ranasinghe, V. G. Zakrzewski, J. Gao, N. Rega, 
 G. Zheng, W. Liang, M. Hada, M. Ehara, K. Toyota, R. Fukuda, 
 J. Hasegawa, M. Ishida, T. Nakajima, Y. Honda, O. Kitao, H. Nakai, 
 T. Vreven, K. Throssell, J. A. Montgomery, Jr., J. E. Peralta, 
 F. Ogliaro, M. J. Bearpark, J. J. Heyd, E. N. Brothers, K. N. Kudin, 
 V. N. Staroverov, T. A. Keith, R. Kobayashi, J. Normand, 
 K. Raghavachari, A. P. Rendell, J. C. Burant, S. S. Iyengar, 
 J. Tomasi, M. Cossi, J. M. Millam, M. Klene, C. Adamo, R. Cammi, 
 J. W. Ochterski, R. L. Martin, K. Morokuma, O. Farkas, 
 J. B. Foresman, and D. J. Fox, Gaussian, Inc., Wallingford CT, 2019.
 
 ******************************************
 Gaussian 16:  ES64L-G16RevC.02  7-Dec-2021
                12-Dec-2022 
 ******************************************
 %chk=HCH0.chk
 ---------------------------------------------
 # b3lyp/6-31g(d) pop=full gfinput iop(3/33=1)
 ---------------------------------------------
 1/38=1,172=1/1;
 2/12=2,17=6,18=5,40=1/2;
 3/5=1,6=6,7=1,11=2,24=10,25=1,30=1,33=1,74=-5/1,2,3;
 4//1;
 5/5=2,38=5/2;
 6/7=3,28=1/1;
 99/5=1,9=1/99;
 -------------------
 Title Card Required
 -------------------
 Symbolic Z-matrix:
 Charge =  1 Multiplicity = 2
 C                     0.        0.       -0.52896 
 H                     0.        0.93788  -1.12368 
 H                     0.       -0.93788  -1.12368 
 O                     0.        0.        0.67764 
 
                          Input orientation:                          
 ---------------------------------------------------------------------
 Center     Atomic      Atomic             Coordinates (Angstroms)
 Number     Number       Type             X           Y           Z
 ---------------------------------------------------------------------
      1          6           0        0.000000    0.000000   -0.528959
      2          1           0        0.000000    0.937882   -1.123680
      3          1           0        0.000000   -0.937882   -1.123680
      4          8           0        0.000000    0.000000    0.677639
 ---------------------------------------------------------------------
                    Distance matrix (angstroms):
                    1          2          3          4
     1  C    0.000000
     2  H    1.110547   0.000000
     3  H    1.110547   1.875764   0.000000
     4  O    1.206598   2.030855   2.030855   0.000000
 Stoichiometry    CH2O(1+,2)
 Framework group  C2V[C2(CO),SGV(H2)]
 Deg. of freedom     3
 Full point group                 C2V     NOp   4
 Largest Abelian subgroup         C2V     NOp   4
 Largest concise Abelian subgroup C2      NOp   2
                         Standard orientation:                         
 ---------------------------------------------------------------------
 Center     Atomic      Atomic             Coordinates (Angstroms)
 Number     Number       Type             X           Y           Z
 ---------------------------------------------------------------------
      1          6           0        0.000000    0.000000   -0.528959
      2          1           0        0.000000    0.937882   -1.123680
      3          1           0       -0.000000   -0.937882   -1.123680
      4          8           0        0.000000   -0.000000    0.677639
 ---------------------------------------------------------------------
 Rotational constants (GHZ):         285.0399014          38.6308490          34.0201683
 Standard basis: 6-31G(d) (6D, 7F)
                         Coordinates in L301:                         
 ---------------------------------------------------------------------
 Center     Atomic      Atomic             Coordinates (Angstroms)
 Number     Number       Type             X           Y           Z
 ---------------------------------------------------------------------
      1          6           0        0.000000    0.000000   -0.528959
      2          1           0        0.000000    0.937882   -1.123680
      3          1           0       -0.000000   -0.937882   -1.123680
      4          8           0        0.000000   -0.000000    0.677639
 ---------------------------------------------------------------------
 FixB: optimizing general contractions.
 Ernie: Thresh=  0.10000D-02 Tol=  0.10000D-05 Strict=F.
 IA=     1 ShT= 0 ShC= 0 NL=   1 NS=   0.
 IA=     1 L=0 SC=0 ISt=    0 NBk=    0 NP=    0 IndPr=    0.
 IA=     1 ShT= 1 ShC= 0 NL=   2 NS=   1.
 IA=     1 L=1 SC=0 ISt=    0 NBk=    0 NP=    0 IndPr=    0.
 IA=     1 ShT= 2 ShC= 2 NL=   1 NS=   1.
 IA=     1 L=2 SC=2 ISt=    0 NBk=    0 NP=    0 IndPr=    0.
 IA=     2 ShT= 0 ShC= 0 NL=   2 NS=   1.
 IA=     2 L=0 SC=0 ISt=    0 NBk=    0 NP=    0 IndPr=    0.
 IA=     3 ShT= 0 ShC= 0 NL=   2 NS=   1.
 IA=     3 L=0 SC=0 ISt=    0 NBk=    0 NP=    0 IndPr=    0.
 IA=     4 ShT= 0 ShC= 0 NL=   1 NS=   0.
 IA=     4 L=0 SC=0 ISt=    0 NBk=    0 NP=    0 IndPr=    0.
 IA=     4 ShT= 1 ShC= 0 NL=   2 NS=   1.
 IA=     4 L=1 SC=0 ISt=    0 NBk=    0 NP=    0 IndPr=    0.
 IA=     4 ShT= 2 ShC= 2 NL=   1 NS=   1.
 IA=     4 L=2 SC=2 ISt=    0 NBk=    0 NP=    0 IndPr=    0.
 AO basis set in the form of general basis input (Overlap normalization):
      1 0
 S   6 1.00       0.000000000000
      0.3047524880D+04  0.1834737132D-02
      0.4573695180D+03  0.1403732281D-01
      0.1039486850D+03  0.6884262226D-01
      0.2921015530D+02  0.2321844432D+00
      0.9286662960D+01  0.4679413484D+00
      0.3163926960D+01  0.3623119853D+00
 SP   3 1.00       0.000000000000
      0.7868272350D+01 -0.1193324198D+00  0.6899906659D-01
      0.1881288540D+01 -0.1608541517D+00  0.3164239610D+00
      0.5442492580D+00  0.1143456438D+01  0.7443082909D+00
 SP   1 1.00       0.000000000000
      0.1687144782D+00  0.1000000000D+01  0.1000000000D+01
 D   1 1.00       0.000000000000
      0.8000000000D+00  0.1000000000D+01
 ****
      2 0
 S   3 1.00       0.000000000000
      0.1873113696D+02  0.3349460434D-01
      0.2825394365D+01  0.2347269535D+00
      0.6401216923D+00  0.8137573261D+00
 S   1 1.00       0.000000000000
      0.1612777588D+00  0.1000000000D+01
 ****
      3 0
 S   3 1.00       0.000000000000
      0.1873113696D+02  0.3349460434D-01
      0.2825394365D+01  0.2347269535D+00
      0.6401216923D+00  0.8137573261D+00
 S   1 1.00       0.000000000000
      0.1612777588D+00  0.1000000000D+01
 ****
      4 0
 S   6 1.00       0.000000000000
      0.5484671660D+04  0.1831074430D-02
      0.8252349460D+03  0.1395017220D-01
      0.1880469580D+03  0.6844507810D-01
      0.5296450000D+02  0.2327143360D+00
      0.1689757040D+02  0.4701928980D+00
      0.5799635340D+01  0.3585208530D+00
 SP   3 1.00       0.000000000000
      0.1553961625D+02 -0.1107775495D+00  0.7087426823D-01
      0.3599933586D+01 -0.1480262627D+00  0.3397528391D+00
      0.1013761750D+01  0.1130767015D+01  0.7271585773D+00
 SP   1 1.00       0.000000000000
      0.2700058226D+00  0.1000000000D+01  0.1000000000D+01
 D   1 1.00       0.000000000000
      0.8000000000D+00  0.1000000000D+01
 ****

 LdAtmC:  AtmChg=     6.000000     1.000000     1.000000     8.000000
 AtZEff=     -3.6000000     -1.0000000     -1.0000000     -5.6000000
 NEqShl: 
              1            2            3            4
     1            1            1            1            1
     2            2            2            2            2
     3            3            3            3            3
     4            4            4            4            4
     5            5            7            5            7
     6            6            8            6            8
     7            7            5            7            5
     8            8            6            8            6
     9            9            9            9            9
    10           10           10           10           10
    11           11           11           11           11
    12           12           12           12           12
 NEqBas: 
              1            2            3            4
     1            1            1            1            1
     2            2            2            2            2
     3            3           -3           -3            3
     4            4           -4            4           -4
     5            5            5            5            5
     6            6            6            6            6
     7            7           -7           -7            7
     8            8           -8            8           -8
     9            9            9            9            9
    10           10           10           10           10
    11           11           11           11           11
    12           12           12           12           12
    13           13           13          -13          -13
    14           14          -14          -14           14
    15           15          -15           15          -15
    16           16           18           16           18
    17           17           19           17           19
    18           18           16           18           16
    19           19           17           19           17
    20           20           20           20           20
    21           21           21           21           21
    22           22          -22          -22           22
    23           23          -23           23          -23
    24           24           24           24           24
    25           25           25           25           25
    26           26          -26          -26           26
    27           27          -27           27          -27
    28           28           28           28           28
    29           29           29           29           29
    30           30           30           30           30
    31           31           31           31           31
    32           32           32          -32          -32
    33           33          -33          -33           33
    34           34          -34           34          -34
 There are    18 symmetry adapted cartesian basis functions of A1  symmetry.
   1         1   1   1   1
   2         2   2   2   2
   3         5   5   5   5
   4         6   6   6   6
   5         9   9   9   9
   6        10  10  10  10
   7        11  11  11  11
   8        12  12  12  12
   9        16  18  18  16
  10        17  19  19  17
  11        20  20  20  20
  12        21  21  21  21
  13        24  24  24  24
  14        25  25  25  25
  15        28  28  28  28
  16        29  29  29  29
  17        30  30  30  30
  18        31  31  31  31
 There are     2 symmetry adapted cartesian basis functions of A2  symmetry.
  19        13  13  13  13
  20        32  32  32  32
 There are     6 symmetry adapted cartesian basis functions of B1  symmetry.
  21         3   3   3   3
  22         7   7   7   7
  23        14  14  14  14
  24        22  22  22  22
  25        26  26  26  26
  26        33  33  33  33
 There are     8 symmetry adapted cartesian basis functions of B2  symmetry.
  27         4   4   4   4
  28         8   8   8   8
  29        15  15  15  15
  30        16 -18 -18  16
  31        17 -19 -19  17
  32        23  23  23  23
  33        27  27  27  27
  34        34  34  34  34
 Order= 1 2 4 3
 Reordered character table:
              1            2            3            4            5
     1            1            1            1            1            1
     2            2            1            1           -1           -1
     3            4            1           -1           -1            1
     4            3            1           -1            1           -1
 NEqShl: 
              1            2            3            4
     1            1            1            1            1
     2            2            2            2            2
     3            3            3            3            3
     4            4            4            4            4
     5            5            7            5            7
     6            6            8            6            8
     7            7            5            7            5
     8            8            6            8            6
     9            9            9            9            9
    10           10           10           10           10
    11           11           11           11           11
    12           12           12           12           12
 NEqBas: 
              1            2            3            4
     1            1            1            1            1
     2            2            2            2            2
     3            3           -3           -3            3
     4            4           -4            4           -4
     5            5            5            5            5
     6            6            6            6            6
     7            7           -7           -7            7
     8            8           -8            8           -8
     9            9            9            9            9
    10           10           10           10           10
    11           11           11           11           11
    12           12           12           12           12
    13           13           13          -13          -13
    14           14          -14          -14           14
    15           15          -15           15          -15
    16           16           18           16           18
    17           17           19           17           19
    18           18           16           18           16
    19           19           17           19           17
    20           20           20           20           20
    21           21           21           21           21
    22           22          -22          -22           22
    23           23          -23           23          -23
    24           24           24           24           24
    25           25           25           25           25
    26           26          -26          -26           26
    27           27          -27           27          -27
    28           28           28           28           28
    29           29           29           29           29
    30           30           30           30           30
    31           31           31           31           31
    32           32           32          -32          -32
    33           33          -33          -33           33
    34           34          -34           34          -34
 There are    18 symmetry adapted basis functions of A1  symmetry.
   1         1   1   1   1
   2         2   2   2   2
   3         5   5   5   5
   4         6   6   6   6
   5         9   9   9   9
   6        10  10  10  10
   7        11  11  11  11
   8        12  12  12  12
   9        16  18  18  16
  10        17  19  19  17
  11        20  20  20  20
  12        21  21  21  21
  13        24  24  24  24
  14        25  25  25  25
  15        28  28  28  28
  16        29  29  29  29
  17        30  30  30  30
  18        31  31  31  31
 There are     2 symmetry adapted basis functions of A2  symmetry.
  19        13  13  13  13
  20        32  32  32  32
 There are     6 symmetry adapted basis functions of B1  symmetry.
  21         3   3   3   3
  22         7   7   7   7
  23        14  14  14  14
  24        22  22  22  22
  25        26  26  26  26
  26        33  33  33  33
 There are     8 symmetry adapted basis functions of B2  symmetry.
  27         4   4   4   4
  28         8   8   8   8
  29        15  15  15  15
  30        16 -18 -18  16
  31        17 -19 -19  17
  32        23  23  23  23
  33        27  27  27  27
  34        34  34  34  34
 Order= 1 2 4 3
 Reordered character table:
              1            2            3            4            5
     1            1            1            1            1            1
     2            2            1            1           -1           -1
     3            4            1           -1           -1            1
     4            3            1           -1            1           -1
    34 basis functions,    64 primitive gaussians,    34 cartesian basis functions
     8 alpha electrons        7 beta electrons
       nuclear repulsion energy        31.2205669969 Hartrees.
 IS=     1 IAt=     1 ISR=     1 T=0 IP=      1 IndIP=      1 IndIPD=      0 C=  5.363452D-01  0.000000D+00                             NZ=T
 IS=     1 IAt=     1 ISR=     1 T=0 IP=      2 IndIP=      2 IndIPD=      1 C=  9.894521D-01  0.000000D+00                             NZ=T
 IS=     1 IAt=     1 ISR=     1 T=0 IP=      3 IndIP=      3 IndIPD=      2 C=  1.597283D+00  0.000000D+00                             NZ=T
 IS=     1 IAt=     1 ISR=     1 T=0 IP=      4 IndIP=      4 IndIPD=      3 C=  2.079187D+00  0.000000D+00                             NZ=T
 IS=     1 IAt=     1 ISR=     1 T=0 IP=      5 IndIP=      5 IndIPD=      4 C=  1.774174D+00  0.000000D+00                             NZ=T
 IS=     1 IAt=     1 ISR=     1 T=0 IP=      6 IndIP=      6 IndIPD=      5 C=  6.125797D-01  0.000000D+00                             NZ=T
 IS=     2 IAt=     1 ISR=     2 T=1 IP=      1 IndIP=      7 IndIPD=      0 C= -3.995564D-01  1.296082D+00                             NZ=T
 IS=     2 IAt=     1 ISR=     2 T=1 IP=      2 IndIP=      8 IndIPD=      1 C= -1.841552D-01  9.937536D-01                             NZ=T
 IS=     2 IAt=     1 ISR=     2 T=1 IP=      3 IndIP=      9 IndIPD=      2 C=  5.163903D-01  4.959527D-01                             NZ=T
 IS=     3 IAt=     1 ISR=     3 T=1 IP=      1 IndIP=     10 IndIPD=      0 C=  1.876179D-01  1.541276D-01                             NZ=T
 IS=     4 IAt=     1 ISR=     4 T=2 IP=      1 IndIP=     11 IndIPD=      1 C=  0.000000D+00  0.000000D+00  1.113825D+00  0.000000D+00 NZ=T
 IS=     5 IAt=     2 ISR=     1 T=0 IP=      1 IndIP=     12 IndIPD=      0 C=  2.149354D-01  0.000000D+00                             NZ=T
 IS=     5 IAt=     2 ISR=     1 T=0 IP=      2 IndIP=     13 IndIPD=      1 C=  3.645712D-01  0.000000D+00                             NZ=T
 IS=     5 IAt=     2 ISR=     1 T=0 IP=      3 IndIP=     14 IndIPD=      2 C=  4.150514D-01  0.000000D+00                             NZ=T
 IS=     6 IAt=     2 ISR=     2 T=0 IP=      1 IndIP=     15 IndIPD=      0 C=  1.813806D-01  0.000000D+00                             NZ=T
 IS=     7 IAt=     3 ISR=     1 T=0 IP=      1 IndIP=     16 IndIPD=      0 C=  2.149354D-01  0.000000D+00                             NZ=T
 IS=     7 IAt=     3 ISR=     1 T=0 IP=      2 IndIP=     17 IndIPD=      1 C=  3.645712D-01  0.000000D+00                             NZ=T
 IS=     7 IAt=     3 ISR=     1 T=0 IP=      3 IndIP=     18 IndIPD=      2 C=  4.150514D-01  0.000000D+00                             NZ=T
 IS=     8 IAt=     3 ISR=     2 T=0 IP=      1 IndIP=     19 IndIPD=      0 C=  1.813806D-01  0.000000D+00                             NZ=T
 IS=     9 IAt=     4 ISR=     1 T=0 IP=      1 IndIP=     20 IndIPD=      0 C=  8.317237D-01  0.000000D+00                             NZ=T
 IS=     9 IAt=     4 ISR=     1 T=0 IP=      2 IndIP=     21 IndIPD=      1 C=  1.530816D+00  0.000000D+00                             NZ=T
 IS=     9 IAt=     4 ISR=     1 T=0 IP=      3 IndIP=     22 IndIPD=      2 C=  2.477149D+00  0.000000D+00                             NZ=T
 IS=     9 IAt=     4 ISR=     1 T=0 IP=      4 IndIP=     23 IndIPD=      3 C=  3.256281D+00  0.000000D+00                             NZ=T
 IS=     9 IAt=     4 ISR=     1 T=0 IP=      5 IndIP=     24 IndIPD=      4 C=  2.792893D+00  0.000000D+00                             NZ=T
 IS=     9 IAt=     4 ISR=     1 T=0 IP=      6 IndIP=     25 IndIPD=      5 C=  9.549377D-01  0.000000D+00                             NZ=T
 IS=    10 IAt=     4 ISR=     2 T=1 IP=      1 IndIP=     26 IndIPD=      0 C= -6.179340D-01  3.116944D+00                             NZ=T
 IS=    10 IAt=     4 ISR=     2 T=1 IP=      2 IndIP=     27 IndIPD=      1 C= -2.757209D-01  2.401438D+00                             NZ=T
 IS=    10 IAt=     4 ISR=     2 T=1 IP=      3 IndIP=     28 IndIPD=      2 C=  8.142076D-01  1.054360D+00                             NZ=T
 IS=    11 IAt=     4 ISR=     3 T=1 IP=      1 IndIP=     29 IndIPD=      0 C=  2.669562D-01  2.774320D-01                             NZ=T
 IS=    12 IAt=     4 ISR=     4 T=2 IP=      1 IndIP=     30 IndIPD=      2 C=  0.000000D+00  0.000000D+00  1.113825D+00  0.000000D+00 NZ=T
 IExCor=  402 DFT=T Ex+Corr=B3LYP ExCW=0 ScaHFX=  0.200000
 ScaDFX=  0.800000  0.720000  1.000000  0.810000 ScalE2=  1.000000  1.000000
 IRadAn=      5 IRanWt=     -1 IRanGd=            0 ICorTp=0 IEmpDi=  4
 NAtoms=    4 NActive=    4 NUniq=    3 SFac= 1.78D+00 NAtFMM=   60 NAOKFM=F Big=F
 Integral buffers will be    131072 words long.
 Raffenetti 2 integral format.
 Two-electron integral symmetry is turned on.
 NPDir=0 NMtPBC=     1 NCelOv=     1 NCel=       1 NClECP=     1 NCelD=      1
         NCelK=      1 NCelE2=     1 NClLst=     1 CellRange=     0.0.
 One-electron integrals computed using PRISM.
 Entering OneElI...
 Calculate overlap and kinetic energy integrals
    NBasis =  34  MinDer = 0  MaxDer = 0
 Requested accuracy = 0.1000D-12
 Symmetry will be used
 PrmmSu-InSpLW:  IPartL=    0 NPrtUS=    1 NPrtUL=    1 DoSpLW=F IThBeg=    0 IThEnd=    0 NThAct=    1.
 PrSmSu:  IncTry=   512 NBBP=             78 NTPThr=   100 NPartT=    1 Incr=           1 LDynOK=F GPUOK=F.
 PrsmSu:  NPrtUS=   1 ThrOK=F IAlg=2 LenDen=           0 ISkipM=0 DoSpLW=F IThBeg=    0 IThEnd=    0.
 Prism:   IPart=     0 DynPar=F LinDyn=F Incr=           1.
 PRISM was handed   104843471 working-precision words and    78 shell-pairs
 IPart=  0 NShTot=          58 NBatch=          25 AvBLen=         2.3
 PrSmSu:  NxtVal=              2.
 *** Overlap *** 
                1             2             3             4             5 
      1  0.100000D+01
      2  0.219059D+00  0.100000D+01
      3  0.000000D+00  0.000000D+00  0.100000D+01
      4  0.000000D+00  0.000000D+00  0.000000D+00  0.100000D+01
      5  0.000000D+00  0.000000D+00  0.000000D+00  0.000000D+00  0.100000D+01
      6  0.184261D+00  0.812273D+00  0.000000D+00  0.000000D+00  0.000000D+00
      7  0.000000D+00  0.000000D+00  0.569754D+00  0.000000D+00  0.000000D+00
      8  0.000000D+00  0.000000D+00  0.000000D+00  0.569754D+00  0.000000D+00
      9  0.000000D+00  0.000000D+00  0.000000D+00  0.000000D+00  0.569754D+00
     10  0.791027D-01  0.710235D+00  0.000000D+00  0.000000D+00  0.000000D+00
     11  0.791027D-01  0.710235D+00  0.000000D+00  0.000000D+00  0.000000D+00
     12  0.791027D-01  0.710235D+00  0.000000D+00  0.000000D+00  0.000000D+00
     13  0.000000D+00  0.000000D+00  0.000000D+00  0.000000D+00  0.000000D+00
     14  0.000000D+00  0.000000D+00  0.000000D+00  0.000000D+00  0.000000D+00
     15  0.000000D+00  0.000000D+00  0.000000D+00  0.000000D+00  0.000000D+00
     16  0.298875D-01  0.260925D+00  0.000000D+00  0.300938D+00 -0.190828D+00
     17  0.899123D-01  0.466848D+00  0.000000D+00  0.224016D+00 -0.142051D+00
     18  0.298875D-01  0.260925D+00  0.000000D+00 -0.300938D+00 -0.190828D+00
     19  0.899123D-01  0.466848D+00  0.000000D+00 -0.224016D+00 -0.142051D+00
     20  0.300501D-05  0.216367D-01  0.000000D+00  0.000000D+00  0.448411D-01
     21  0.848688D-02  0.175023D+00  0.000000D+00  0.000000D+00  0.277047D+00
     22  0.000000D+00  0.000000D+00  0.915795D-01  0.000000D+00  0.000000D+00
     23  0.000000D+00  0.000000D+00  0.000000D+00  0.915795D-01  0.000000D+00
     24 -0.202134D-01 -0.206151D+00  0.000000D+00  0.000000D+00 -0.279511D+00
     25  0.674691D-01  0.376797D+00  0.000000D+00  0.000000D+00  0.337728D+00
     26  0.000000D+00  0.000000D+00  0.285049D+00  0.000000D+00  0.000000D+00
     27  0.000000D+00  0.000000D+00  0.000000D+00  0.285049D+00  0.000000D+00
     28 -0.150926D+00 -0.579721D+00  0.000000D+00  0.000000D+00 -0.270176D+00
     29  0.258917D-02  0.139142D+00  0.000000D+00  0.000000D+00  0.194632D+00
     30  0.258917D-02  0.139142D+00  0.000000D+00  0.000000D+00  0.194632D+00
     31  0.100691D+00  0.418740D+00  0.000000D+00  0.000000D+00  0.458316D+00
     32  0.000000D+00  0.000000D+00  0.000000D+00  0.000000D+00  0.000000D+00
     33  0.000000D+00  0.000000D+00 -0.258585D+00  0.000000D+00  0.000000D+00
     34  0.000000D+00  0.000000D+00  0.000000D+00 -0.258585D+00  0.000000D+00
                6             7             8             9            10 
      6  0.100000D+01
      7  0.000000D+00  0.100000D+01
      8  0.000000D+00  0.000000D+00  0.100000D+01
      9  0.000000D+00  0.000000D+00  0.000000D+00  0.100000D+01
     10  0.629936D+00  0.000000D+00  0.000000D+00  0.000000D+00  0.100000D+01
     11  0.629936D+00  0.000000D+00  0.000000D+00  0.000000D+00  0.333333D+00
     12  0.629936D+00  0.000000D+00  0.000000D+00  0.000000D+00  0.333333D+00
     13  0.000000D+00  0.000000D+00  0.000000D+00  0.000000D+00  0.000000D+00
     14  0.000000D+00  0.000000D+00  0.000000D+00  0.000000D+00  0.000000D+00
     15  0.000000D+00  0.000000D+00  0.000000D+00  0.000000D+00  0.000000D+00
     16  0.368839D+00  0.000000D+00  0.433466D+00 -0.274866D+00  0.110922D+00
     17  0.695212D+00  0.000000D+00  0.494699D+00 -0.313694D+00  0.343758D+00
     18  0.368839D+00  0.000000D+00 -0.433466D+00 -0.274866D+00  0.110922D+00
     19  0.695212D+00  0.000000D+00 -0.494699D+00 -0.313694D+00  0.343758D+00
     20  0.506503D-01  0.000000D+00  0.000000D+00  0.929856D-01  0.816491D-03
     21  0.290470D+00  0.000000D+00  0.000000D+00  0.462257D+00  0.550081D-01
     22  0.000000D+00  0.157023D+00  0.000000D+00  0.000000D+00  0.000000D+00
     23  0.000000D+00  0.000000D+00  0.157023D+00  0.000000D+00  0.000000D+00
     24 -0.147062D+00  0.000000D+00  0.000000D+00 -0.820503D-01 -0.751449D-01
     25  0.559384D+00  0.000000D+00  0.000000D+00  0.644857D+00  0.244724D+00
     26  0.000000D+00  0.544271D+00  0.000000D+00  0.000000D+00  0.000000D+00
     27  0.000000D+00  0.000000D+00  0.544271D+00  0.000000D+00  0.000000D+00
     28 -0.509745D+00  0.000000D+00  0.000000D+00 -0.433616D-01 -0.433569D+00
     29  0.305281D+00  0.000000D+00  0.000000D+00  0.472239D+00  0.124978D+00
     30  0.305281D+00  0.000000D+00  0.000000D+00  0.472239D+00  0.416594D-01
     31  0.398556D+00  0.000000D+00  0.000000D+00  0.417341D+00  0.214931D+00
     32  0.000000D+00  0.000000D+00  0.000000D+00  0.000000D+00  0.000000D+00
     33  0.000000D+00 -0.172498D+00  0.000000D+00  0.000000D+00  0.000000D+00
     34  0.000000D+00  0.000000D+00 -0.172498D+00  0.000000D+00  0.000000D+00
               11            12            13            14            15 
     11  0.100000D+01
     12  0.333333D+00  0.100000D+01
     13  0.000000D+00  0.000000D+00  0.100000D+01
     14  0.000000D+00  0.000000D+00  0.000000D+00  0.100000D+01
     15  0.000000D+00  0.000000D+00  0.000000D+00  0.000000D+00  0.100000D+01
     16  0.345624D+00  0.205295D+00  0.000000D+00  0.000000D+00 -0.257776D+00
     17  0.402194D+00  0.367255D+00  0.000000D+00  0.000000D+00 -0.641805D-01
     18  0.345624D+00  0.205295D+00  0.000000D+00  0.000000D+00  0.257776D+00
     19  0.402194D+00  0.367255D+00  0.000000D+00  0.000000D+00  0.641805D-01
     20  0.816491D-03  0.626877D-01  0.000000D+00  0.000000D+00  0.000000D+00
     21  0.550081D-01  0.356749D+00  0.000000D+00  0.000000D+00  0.000000D+00
     22  0.000000D+00  0.000000D+00  0.000000D+00  0.179699D+00  0.000000D+00
     23  0.000000D+00  0.000000D+00  0.000000D+00  0.000000D+00  0.179699D+00
     24 -0.751449D-01 -0.375782D+00  0.000000D+00  0.000000D+00  0.000000D+00
     25  0.244724D+00  0.418100D+00  0.000000D+00  0.000000D+00  0.000000D+00
     26  0.000000D+00  0.000000D+00  0.000000D+00  0.253455D+00  0.000000D+00
     27  0.000000D+00  0.000000D+00  0.000000D+00  0.000000D+00  0.253455D+00
     28 -0.433569D+00 -0.448068D+00  0.000000D+00  0.000000D+00  0.000000D+00
     29  0.416594D-01  0.214931D+00  0.000000D+00  0.000000D+00  0.000000D+00
     30  0.124978D+00  0.214931D+00  0.000000D+00  0.000000D+00  0.000000D+00
     31  0.214931D+00  0.499111D+00  0.000000D+00  0.000000D+00  0.000000D+00
     32  0.000000D+00  0.000000D+00  0.124978D+00  0.000000D+00  0.000000D+00
     33  0.000000D+00  0.000000D+00  0.000000D+00 -0.394835D+00  0.000000D+00
     34  0.000000D+00  0.000000D+00  0.000000D+00  0.000000D+00 -0.394835D+00
               16            17            18            19            20 
     16  0.100000D+01
     17  0.658292D+00  0.100000D+01
     18  0.122465D-01  0.126640D+00  0.100000D+01
     19  0.126640D+00  0.363052D+00  0.658292D+00  0.100000D+01
     20  0.396281D-04  0.112699D-01  0.396281D-04  0.112699D-01  0.100000D+01
     21  0.271229D-02  0.782819D-01  0.271229D-02  0.782819D-01  0.233690D+00
     22  0.000000D+00  0.000000D+00  0.000000D+00  0.000000D+00  0.000000D+00
     23  0.249393D-02  0.288879D-01 -0.249393D-02 -0.288879D-01  0.000000D+00
     24 -0.478990D-02 -0.554828D-01 -0.478990D-02 -0.554828D-01  0.000000D+00
     25  0.460567D-01  0.215165D+00  0.460567D-01  0.215165D+00  0.167280D+00
     26  0.000000D+00  0.000000D+00  0.000000D+00  0.000000D+00  0.000000D+00
     27  0.607225D-01  0.148200D+00 -0.607225D-01 -0.148200D+00  0.000000D+00
     28 -0.116625D+00 -0.284636D+00 -0.116625D+00 -0.284636D+00  0.000000D+00
     29  0.275303D-02  0.859905D-01  0.275303D-02  0.859905D-01  0.335315D-01
     30  0.773061D-02  0.100608D+00  0.773061D-02  0.100608D+00  0.335315D-01
     31  0.211143D-01  0.139912D+00  0.211143D-01  0.139912D+00  0.335315D-01
     32  0.000000D+00  0.000000D+00  0.000000D+00  0.000000D+00  0.000000D+00
     33  0.000000D+00  0.000000D+00  0.000000D+00  0.000000D+00  0.000000D+00
     34 -0.165585D-01 -0.486270D-01  0.165585D-01  0.486270D-01  0.000000D+00
               21            22            23            24            25 
     21  0.100000D+01
     22  0.000000D+00  0.100000D+01
     23  0.000000D+00  0.000000D+00  0.100000D+01
     24  0.000000D+00  0.000000D+00  0.000000D+00  0.100000D+01
     25  0.763641D+00  0.000000D+00  0.000000D+00  0.000000D+00  0.100000D+01
     26  0.000000D+00  0.501521D+00  0.000000D+00  0.000000D+00  0.000000D+00
     27  0.000000D+00  0.000000D+00  0.501521D+00  0.000000D+00  0.000000D+00
     28  0.000000D+00  0.000000D+00  0.000000D+00  0.501521D+00  0.000000D+00
     29  0.547066D+00  0.000000D+00  0.000000D+00  0.000000D+00  0.699015D+00
     30  0.547066D+00  0.000000D+00  0.000000D+00  0.000000D+00  0.699015D+00
     31  0.547066D+00  0.000000D+00  0.000000D+00  0.000000D+00  0.699015D+00
     32  0.000000D+00  0.000000D+00  0.000000D+00  0.000000D+00  0.000000D+00
     33  0.000000D+00  0.000000D+00  0.000000D+00  0.000000D+00  0.000000D+00
     34  0.000000D+00  0.000000D+00  0.000000D+00  0.000000D+00  0.000000D+00
               26            27            28            29            30 
     26  0.100000D+01
     27  0.000000D+00  0.100000D+01
     28  0.000000D+00  0.000000D+00  0.100000D+01
     29  0.000000D+00  0.000000D+00  0.000000D+00  0.100000D+01
     30  0.000000D+00  0.000000D+00  0.000000D+00  0.333333D+00  0.100000D+01
     31  0.000000D+00  0.000000D+00  0.000000D+00  0.333333D+00  0.333333D+00
     32  0.000000D+00  0.000000D+00  0.000000D+00  0.000000D+00  0.000000D+00
     33  0.000000D+00  0.000000D+00  0.000000D+00  0.000000D+00  0.000000D+00
     34  0.000000D+00  0.000000D+00  0.000000D+00  0.000000D+00  0.000000D+00
               31            32            33            34 
     31  0.100000D+01
     32  0.000000D+00  0.100000D+01
     33  0.000000D+00  0.000000D+00  0.100000D+01
     34  0.000000D+00  0.000000D+00  0.000000D+00  0.100000D+01
 *** Kinetic Energy *** 
                1             2             3             4             5 
      1  0.162076D+02
      2 -0.124757D+01  0.932246D+00
      3  0.000000D+00  0.000000D+00  0.217833D+01
      4  0.000000D+00  0.000000D+00  0.000000D+00  0.217833D+01
      5  0.000000D+00  0.000000D+00  0.000000D+00  0.000000D+00  0.217833D+01
      6  0.899505D-01  0.306718D+00  0.000000D+00  0.000000D+00  0.000000D+00
      7  0.000000D+00  0.000000D+00  0.376673D+00  0.000000D+00  0.000000D+00
      8  0.000000D+00  0.000000D+00  0.000000D+00  0.376673D+00  0.000000D+00
      9  0.000000D+00  0.000000D+00  0.000000D+00  0.000000D+00  0.376673D+00
     10 -0.524817D+00  0.520042D+00  0.000000D+00  0.000000D+00  0.000000D+00
     11 -0.524817D+00  0.520042D+00  0.000000D+00  0.000000D+00  0.000000D+00
     12 -0.524817D+00  0.520042D+00  0.000000D+00  0.000000D+00  0.000000D+00
     13  0.000000D+00  0.000000D+00  0.000000D+00  0.000000D+00  0.000000D+00
     14  0.000000D+00  0.000000D+00  0.000000D+00  0.000000D+00  0.000000D+00
     15  0.000000D+00  0.000000D+00  0.000000D+00  0.000000D+00  0.000000D+00
     16 -0.345755D-01  0.324655D-01  0.000000D+00  0.183318D+00 -0.116244D+00
     17  0.227935D-01  0.109965D+00  0.000000D+00  0.110461D+00 -0.700446D-01
     18 -0.345755D-01  0.324655D-01  0.000000D+00 -0.183318D+00 -0.116244D+00
     19  0.227935D-01  0.109965D+00  0.000000D+00 -0.110461D+00 -0.700446D-01
     20 -0.115744D-03 -0.249529D-01  0.000000D+00  0.000000D+00 -0.123768D-01
     21 -0.380023D-01 -0.193585D-01  0.000000D+00  0.000000D+00  0.993608D-01
     22  0.000000D+00  0.000000D+00  0.256091D-01  0.000000D+00  0.000000D+00
     23  0.000000D+00  0.000000D+00  0.000000D+00  0.256091D-01  0.000000D+00
     24  0.611845D-01 -0.114456D+00  0.000000D+00  0.000000D+00 -0.331590D+00
     25  0.597478D-02  0.791229D-01  0.000000D+00  0.000000D+00  0.191888D+00
     26  0.000000D+00  0.000000D+00  0.161957D+00  0.000000D+00  0.000000D+00
     27  0.000000D+00  0.000000D+00  0.000000D+00  0.161957D+00  0.000000D+00
     28 -0.902940D-01 -0.324329D+00  0.000000D+00  0.000000D+00 -0.364222D+00
     29 -0.253350D-01 -0.660901D-01  0.000000D+00  0.000000D+00 -0.150738D-01
     30 -0.253350D-01 -0.660901D-01  0.000000D+00  0.000000D+00 -0.150738D-01
     31 -0.345942D-01  0.296695D+00  0.000000D+00  0.000000D+00  0.674335D+00
     32  0.000000D+00  0.000000D+00  0.000000D+00  0.000000D+00  0.000000D+00
     33  0.000000D+00  0.000000D+00 -0.281341D+00  0.000000D+00  0.000000D+00
     34  0.000000D+00  0.000000D+00  0.000000D+00 -0.281341D+00  0.000000D+00
                6             7             8             9            10 
      6  0.253072D+00
      7  0.000000D+00  0.421786D+00
      8  0.000000D+00  0.000000D+00  0.421786D+00
      9  0.000000D+00  0.000000D+00  0.000000D+00  0.421786D+00
     10  0.226288D+00  0.000000D+00  0.000000D+00  0.000000D+00  0.173333D+01
     11  0.226288D+00  0.000000D+00  0.000000D+00  0.000000D+00 -0.133333D+00
     12  0.226288D+00  0.000000D+00  0.000000D+00  0.000000D+00 -0.133333D+00
     13  0.000000D+00  0.000000D+00  0.000000D+00  0.000000D+00  0.000000D+00
     14  0.000000D+00  0.000000D+00  0.000000D+00  0.000000D+00  0.000000D+00
     15  0.000000D+00  0.000000D+00  0.000000D+00  0.000000D+00  0.000000D+00
     16  0.902326D-01  0.000000D+00  0.224581D+00 -0.142409D+00 -0.843405D-01
     17  0.130338D+00  0.000000D+00  0.174328D+00 -0.110543D+00  0.652652D-01
     18  0.902326D-01  0.000000D+00 -0.224581D+00 -0.142409D+00 -0.843405D-01
     19  0.130338D+00  0.000000D+00 -0.174328D+00 -0.110543D+00  0.652652D-01
     20  0.107241D-01  0.000000D+00  0.000000D+00  0.504415D-01 -0.144756D-01
     21  0.629269D-01  0.000000D+00  0.000000D+00  0.232517D+00 -0.972771D-01
     22  0.000000D+00  0.799104D-01  0.000000D+00  0.000000D+00  0.000000D+00
     23  0.000000D+00  0.000000D+00  0.799104D-01  0.000000D+00  0.000000D+00
     24 -0.748412D-01  0.000000D+00  0.000000D+00 -0.111935D+00  0.893892D-01
     25  0.111538D+00  0.000000D+00  0.000000D+00  0.262497D+00  0.111602D-01
     26  0.000000D+00  0.221552D+00  0.000000D+00  0.000000D+00  0.000000D+00
     27  0.000000D+00  0.000000D+00  0.221552D+00  0.000000D+00  0.000000D+00
     28 -0.207498D+00  0.000000D+00  0.000000D+00 -0.139683D+00 -0.194823D+00
     29  0.480409D-01  0.000000D+00  0.000000D+00  0.205909D+00  0.870366D-02
     30  0.480409D-01  0.000000D+00  0.000000D+00  0.205909D+00 -0.859723D-01
     31  0.120185D+00  0.000000D+00  0.000000D+00  0.203655D+00 -0.276998D-01
     32  0.000000D+00  0.000000D+00  0.000000D+00  0.000000D+00  0.000000D+00
     33  0.000000D+00 -0.133420D+00  0.000000D+00  0.000000D+00  0.000000D+00
     34  0.000000D+00  0.000000D+00 -0.133420D+00  0.000000D+00  0.000000D+00
               11            12            13            14            15 
     11  0.173333D+01
     12 -0.133333D+00  0.173333D+01
     13  0.000000D+00  0.000000D+00  0.280000D+01
     14  0.000000D+00  0.000000D+00  0.000000D+00  0.280000D+01
     15  0.000000D+00  0.000000D+00  0.000000D+00  0.000000D+00  0.280000D+01
     16  0.219196D+00  0.377103D-01  0.000000D+00  0.000000D+00 -0.333377D+00
     17  0.110895D+00  0.836127D-01  0.000000D+00  0.000000D+00 -0.501155D-01
     18  0.219196D+00  0.377103D-01  0.000000D+00  0.000000D+00  0.333377D+00
     19  0.110895D+00  0.836127D-01  0.000000D+00  0.000000D+00  0.501155D-01
     20 -0.144756D-01 -0.419219D-01  0.000000D+00  0.000000D+00  0.000000D+00
     21 -0.972771D-01  0.248806D+00  0.000000D+00  0.000000D+00  0.000000D+00
     22  0.000000D+00  0.000000D+00  0.000000D+00  0.169529D+00  0.000000D+00
     23  0.000000D+00  0.000000D+00  0.000000D+00  0.000000D+00  0.169529D+00
     24  0.893892D-01 -0.660607D+00  0.000000D+00  0.000000D+00  0.000000D+00
     25  0.111602D-01  0.182691D+00  0.000000D+00  0.000000D+00  0.000000D+00
     26  0.000000D+00  0.000000D+00  0.000000D+00  0.250759D+00  0.000000D+00
     27  0.000000D+00  0.000000D+00  0.000000D+00  0.000000D+00  0.250759D+00
     28 -0.194823D+00 -0.333184D+00  0.000000D+00  0.000000D+00  0.000000D+00
     29 -0.859723D-01 -0.276998D-01  0.000000D+00  0.000000D+00  0.000000D+00
     30  0.870366D-02 -0.276998D-01  0.000000D+00  0.000000D+00  0.000000D+00
     31 -0.276998D-01  0.755211D+00  0.000000D+00  0.000000D+00  0.000000D+00
     32  0.000000D+00  0.000000D+00  0.142014D+00  0.000000D+00  0.000000D+00
     33  0.000000D+00  0.000000D+00  0.000000D+00 -0.864505D+00  0.000000D+00
     34  0.000000D+00  0.000000D+00  0.000000D+00  0.000000D+00 -0.864505D+00
               16            17            18            19            20 
     16  0.139568D+01
     17  0.259735D+00  0.241917D+00
     18 -0.211557D-01 -0.493105D-02  0.139568D+01
     19 -0.493105D-02  0.285028D-01  0.259735D+00  0.241917D+00
     20 -0.335873D-03 -0.295930D-02 -0.335873D-03 -0.295930D-02  0.295401D+02
     21 -0.904203D-02 -0.115158D-01 -0.904203D-02 -0.115158D-01 -0.218540D+01
     22  0.000000D+00  0.000000D+00  0.000000D+00  0.000000D+00  0.000000D+00
     23 -0.667945D-02  0.347170D-02  0.667945D-02 -0.347170D-02  0.000000D+00
     24  0.128287D-01 -0.666784D-02  0.128287D-01 -0.666784D-02  0.000000D+00
     25 -0.242190D-01  0.560477D-03 -0.242190D-01  0.560477D-03  0.131283D+00
     26  0.000000D+00  0.000000D+00  0.000000D+00  0.000000D+00  0.000000D+00
     27 -0.890902D-02  0.303129D-01  0.890902D-02 -0.303129D-01  0.000000D+00
     28  0.171109D-01 -0.582198D-01  0.171109D-01 -0.582198D-01  0.000000D+00
     29 -0.893419D-02 -0.156605D-01 -0.893419D-02 -0.156605D-01 -0.465828D+00
     30 -0.154661D-01 -0.968370D-02 -0.154661D-01 -0.968370D-02 -0.465828D+00
     31 -0.330289D-01  0.638660D-02 -0.330289D-01  0.638660D-02 -0.465828D+00
     32  0.000000D+00  0.000000D+00  0.000000D+00  0.000000D+00  0.000000D+00
     33  0.000000D+00  0.000000D+00  0.000000D+00  0.000000D+00  0.000000D+00
     34  0.217290D-01 -0.198824D-01 -0.217290D-01  0.198824D-01  0.000000D+00
               21            22            23            24            25 
     21  0.171121D+01
     22  0.000000D+00  0.425188D+01
     23  0.000000D+00  0.000000D+00  0.425188D+01
     24  0.000000D+00  0.000000D+00  0.000000D+00  0.425188D+01
     25  0.480048D+00  0.000000D+00  0.000000D+00  0.000000D+00  0.405009D+00
     26  0.000000D+00  0.547243D+00  0.000000D+00  0.000000D+00  0.000000D+00
     27  0.000000D+00  0.000000D+00  0.547243D+00  0.000000D+00  0.000000D+00
     28  0.000000D+00  0.000000D+00  0.000000D+00  0.547243D+00  0.000000D+00
     29  0.249764D+00  0.000000D+00  0.000000D+00  0.000000D+00  0.328083D+00
     30  0.249764D+00  0.000000D+00  0.000000D+00  0.000000D+00  0.328083D+00
     31  0.249764D+00  0.000000D+00  0.000000D+00  0.000000D+00  0.328083D+00
     32  0.000000D+00  0.000000D+00  0.000000D+00  0.000000D+00  0.000000D+00
     33  0.000000D+00  0.000000D+00  0.000000D+00  0.000000D+00  0.000000D+00
     34  0.000000D+00  0.000000D+00  0.000000D+00  0.000000D+00  0.000000D+00
               26            27            28            29            30 
     26  0.675015D+00
     27  0.000000D+00  0.675015D+00
     28  0.000000D+00  0.000000D+00  0.675015D+00
     29  0.000000D+00  0.000000D+00  0.000000D+00  0.173333D+01
     30  0.000000D+00  0.000000D+00  0.000000D+00 -0.133333D+00  0.173333D+01
     31  0.000000D+00  0.000000D+00  0.000000D+00 -0.133333D+00 -0.133333D+00
     32  0.000000D+00  0.000000D+00  0.000000D+00  0.000000D+00  0.000000D+00
     33  0.000000D+00  0.000000D+00  0.000000D+00  0.000000D+00  0.000000D+00
     34  0.000000D+00  0.000000D+00  0.000000D+00  0.000000D+00  0.000000D+00
               31            32            33            34 
     31  0.173333D+01
     32  0.000000D+00  0.280000D+01
     33  0.000000D+00  0.000000D+00  0.280000D+01
     34  0.000000D+00  0.000000D+00  0.000000D+00  0.280000D+01
 Entering OneElI...
 Calculate potential energy integrals
    NBasis =  34  MinDer = 0  MaxDer = 0
 Requested accuracy = 0.1000D-12
 Symmetry will be used
 PrmmSu-InSpLW:  IPartL=    0 NPrtUS=    1 NPrtUL=    1 DoSpLW=F IThBeg=    0 IThEnd=    0 NThAct=    1.
 PrSmSu:  IncTry=   512 NBBP=            312 NTPThr=   100 NPartT=    1 Incr=           3 LDynOK=F GPUOK=F.
 PrsmSu:  NPrtUS=   1 ThrOK=F IAlg=2 LenDen=           0 ISkipM=0 DoSpLW=F IThBeg=    0 IThEnd=    0.
 Prism:   IPart=     0 DynPar=F LinDyn=F Incr=           3.
 PRISM was handed   104843733 working-precision words and    78 shell-pairs
 IPart=  0 NShTot=         232 NBatch=          58 AvBLen=         4.0
 PrSmSu:  NxtVal=              4.
 ***** Potential Energy ***** 
                1             2             3             4             5 
      1  0.386143D+02
      2  0.339021D+01  0.101771D+02
      3  0.000000D+00  0.000000D+00  0.104110D+02
      4  0.000000D+00  0.000000D+00  0.000000D+00  0.105543D+02
      5  0.122860D+00  0.882147D+00  0.000000D+00  0.000000D+00  0.111173D+02
      6  0.407498D+01  0.772911D+01  0.000000D+00  0.000000D+00  0.857474D+00
      7  0.000000D+00  0.000000D+00  0.460751D+01  0.000000D+00  0.000000D+00
      8  0.000000D+00  0.000000D+00  0.000000D+00  0.473151D+01  0.000000D+00
      9  0.206398D-01  0.615517D+00  0.000000D+00  0.000000D+00  0.526180D+01
     10  0.116950D+01  0.649077D+01  0.000000D+00  0.000000D+00  0.338475D+00
     11  0.117345D+01  0.661318D+01  0.000000D+00  0.000000D+00  0.279429D+00
     12  0.118835D+01  0.708754D+01  0.000000D+00  0.000000D+00  0.145998D+01
     13  0.000000D+00  0.000000D+00  0.000000D+00  0.000000D+00  0.000000D+00
     14  0.000000D+00  0.000000D+00  0.586255D+00  0.000000D+00  0.000000D+00
     15  0.000000D+00  0.000000D+00  0.000000D+00  0.483985D+00  0.000000D+00
     16  0.610021D+00  0.217059D+01  0.000000D+00  0.241514D+01 -0.146187D+01
     17  0.196446D+01  0.417142D+01  0.000000D+00  0.178418D+01 -0.773267D+00
     18  0.610021D+00  0.217059D+01  0.000000D+00 -0.241514D+01 -0.146187D+01
     19  0.196446D+01  0.417142D+01  0.000000D+00 -0.178418D+01 -0.773267D+00
     20  0.453079D-04  0.722429D+00  0.000000D+00  0.000000D+00  0.153079D+01
     21  0.156401D+00  0.218311D+01  0.000000D+00  0.000000D+00  0.355791D+01
     22  0.000000D+00  0.000000D+00  0.999103D+00  0.000000D+00  0.000000D+00
     23  0.000000D+00  0.000000D+00  0.000000D+00  0.100080D+01  0.000000D+00
     24 -0.393415D+00 -0.252976D+01  0.000000D+00  0.000000D+00 -0.354638D+01
     25  0.147912D+01  0.399139D+01  0.000000D+00  0.000000D+00  0.388439D+01
     26  0.000000D+00  0.000000D+00  0.249764D+01  0.000000D+00  0.000000D+00
     27  0.000000D+00  0.000000D+00  0.000000D+00  0.252393D+01  0.000000D+00
     28 -0.336815D+01 -0.593350D+01  0.000000D+00  0.000000D+00 -0.316021D+01
     29  0.354178D-01  0.137286D+01  0.000000D+00  0.000000D+00  0.196375D+01
     30  0.354935D-01  0.137654D+01  0.000000D+00  0.000000D+00  0.196707D+01
     31  0.217662D+01  0.477486D+01  0.000000D+00  0.000000D+00  0.540632D+01
     32  0.000000D+00  0.000000D+00  0.000000D+00  0.000000D+00  0.000000D+00
     33  0.000000D+00  0.000000D+00 -0.258942D+01  0.000000D+00  0.000000D+00
     34  0.000000D+00  0.000000D+00  0.000000D+00 -0.259992D+01  0.000000D+00
                6             7             8             9            10 
      6  0.809940D+01
      7  0.000000D+00  0.591445D+01
      8  0.000000D+00  0.000000D+00  0.611733D+01
      9  0.109555D+01  0.000000D+00  0.000000D+00  0.712975D+01
     10  0.532019D+01  0.000000D+00  0.000000D+00  0.247454D+00  0.852431D+01
     11  0.545127D+01  0.000000D+00  0.000000D+00  0.189466D+00  0.287268D+01
     12  0.598297D+01  0.000000D+00  0.000000D+00  0.121818D+01  0.300166D+01
     13  0.000000D+00  0.000000D+00  0.000000D+00  0.000000D+00  0.000000D+00
     14  0.000000D+00  0.428603D+00  0.000000D+00  0.000000D+00  0.000000D+00
     15  0.000000D+00  0.000000D+00  0.328165D+00  0.000000D+00  0.000000D+00
     16  0.262470D+01  0.000000D+00  0.280862D+01 -0.171756D+01  0.888076D+00
     17  0.491977D+01  0.000000D+00  0.276999D+01 -0.130250D+01  0.279924D+01
     18  0.262470D+01  0.000000D+00 -0.280862D+01 -0.171756D+01  0.888076D+00
     19  0.491977D+01  0.000000D+00 -0.276999D+01 -0.130250D+01  0.279924D+01
     20  0.174690D+01  0.000000D+00  0.000000D+00  0.323120D+01  0.158302D-01
     21  0.354863D+01  0.000000D+00  0.000000D+00  0.565912D+01  0.578330D+00
     22  0.000000D+00  0.160988D+01  0.000000D+00  0.000000D+00  0.000000D+00
     23  0.000000D+00  0.000000D+00  0.161191D+01  0.000000D+00  0.000000D+00
     24 -0.186695D+01  0.000000D+00  0.000000D+00 -0.126926D+01 -0.785852D+00
     25  0.530528D+01  0.000000D+00  0.000000D+00  0.609874D+01  0.221927D+01
     26  0.000000D+00  0.373461D+01  0.000000D+00  0.000000D+00  0.000000D+00
     27  0.000000D+00  0.000000D+00  0.377059D+01  0.000000D+00  0.000000D+00
     28 -0.485622D+01  0.000000D+00  0.000000D+00 -0.965673D+00 -0.388936D+01
     29  0.275565D+01  0.000000D+00  0.000000D+00  0.422855D+01  0.112053D+01
     30  0.276138D+01  0.000000D+00  0.000000D+00  0.423442D+01  0.374523D+00
     31  0.429297D+01  0.000000D+00  0.000000D+00  0.419327D+01  0.216872D+01
     32  0.000000D+00  0.000000D+00  0.000000D+00  0.000000D+00  0.000000D+00
     33  0.000000D+00 -0.161623D+01  0.000000D+00  0.000000D+00  0.000000D+00
     34  0.000000D+00  0.000000D+00 -0.162466D+01  0.000000D+00  0.000000D+00
               11            12            13            14            15 
     11  0.878701D+01
     12  0.306316D+01  0.991722D+01
     13  0.000000D+00  0.000000D+00  0.861803D+01
     14  0.000000D+00  0.000000D+00  0.000000D+00  0.900499D+01
     15  0.000000D+00  0.000000D+00  0.000000D+00  0.000000D+00  0.918949D+01
     16  0.273736D+01  0.159299D+01  0.000000D+00  0.000000D+00 -0.194026D+01
     17  0.332006D+01  0.313708D+01  0.000000D+00  0.000000D+00 -0.382022D+00
     18  0.273736D+01  0.159299D+01  0.000000D+00  0.000000D+00  0.194026D+01
     19  0.332006D+01  0.313708D+01  0.000000D+00  0.000000D+00  0.382022D+00
     20  0.158319D-01  0.211757D+01  0.000000D+00  0.000000D+00  0.000000D+00
     21  0.579555D+00  0.468334D+01  0.000000D+00  0.000000D+00  0.000000D+00
     22  0.000000D+00  0.000000D+00  0.000000D+00  0.202522D+01  0.000000D+00
     23  0.000000D+00  0.000000D+00  0.000000D+00  0.000000D+00  0.202778D+01
     24 -0.788057D+00 -0.487038D+01  0.000000D+00  0.000000D+00  0.000000D+00
     25  0.224284D+01  0.483014D+01  0.000000D+00  0.000000D+00  0.000000D+00
     26  0.000000D+00  0.000000D+00  0.000000D+00  0.237199D+01  0.000000D+00
     27  0.000000D+00  0.000000D+00  0.000000D+00  0.000000D+00  0.236990D+01
     28 -0.394640D+01 -0.476790D+01  0.000000D+00  0.000000D+00  0.000000D+00
     29  0.374523D+00  0.225762D+01  0.000000D+00  0.000000D+00  0.000000D+00
     30  0.112723D+01  0.226095D+01  0.000000D+00  0.000000D+00  0.000000D+00
     31  0.217985D+01  0.582962D+01  0.000000D+00  0.000000D+00  0.000000D+00
     32  0.000000D+00  0.000000D+00  0.112357D+01  0.000000D+00  0.000000D+00
     33  0.000000D+00  0.000000D+00  0.000000D+00 -0.397612D+01  0.000000D+00
     34  0.000000D+00  0.000000D+00  0.000000D+00  0.000000D+00 -0.398560D+01
               16            17            18            19            20 
     16  0.687741D+01
     17  0.416915D+01  0.559833D+01
     18  0.102964D+00  0.912011D+00  0.687741D+01
     19  0.912011D+00  0.242174D+01  0.416915D+01  0.559833D+01
     20  0.109614D-02  0.384243D+00  0.109614D-02  0.384243D+00  0.646338D+02
     21  0.296284D-01  0.936621D+00  0.296284D-01  0.936621D+00  0.566056D+01
     22  0.000000D+00  0.000000D+00  0.000000D+00  0.000000D+00  0.000000D+00
     23  0.237727D-01  0.291372D+00 -0.237727D-01 -0.291372D+00  0.000000D+00
     24 -0.530258D-01 -0.671135D+00 -0.530258D-01 -0.671135D+00 -0.926664D-01
     25  0.385138D+00  0.192335D+01  0.385138D+00  0.192335D+01  0.584576D+01
     26  0.000000D+00  0.000000D+00  0.000000D+00  0.000000D+00  0.000000D+00
     27  0.440855D+00  0.994261D+00 -0.440855D+00 -0.994261D+00  0.000000D+00
     28 -0.954002D+00 -0.248607D+01 -0.954002D+00 -0.248607D+01 -0.127693D-01
     29  0.245746D-01  0.766680D+00  0.245746D-01  0.766680D+00  0.702465D+00
     30  0.648638D-01  0.880014D+00  0.648638D-01  0.880014D+00  0.702515D+00
     31  0.226016D+00  0.151354D+01  0.226016D+00  0.151354D+01  0.705982D+00
     32  0.000000D+00  0.000000D+00  0.000000D+00  0.000000D+00  0.000000D+00
     33  0.000000D+00  0.000000D+00  0.000000D+00  0.000000D+00  0.000000D+00
     34 -0.148290D+00 -0.439222D+00  0.148290D+00  0.439222D+00  0.000000D+00
               21            22            23            24            25 
     21  0.136837D+02
     22  0.000000D+00  0.146950D+02
     23  0.000000D+00  0.000000D+00  0.146989D+02
     24 -0.632202D+00  0.000000D+00  0.000000D+00  0.149721D+02
     25  0.943690D+01  0.000000D+00  0.000000D+00 -0.613146D+00  0.973922D+01
     26  0.000000D+00  0.526188D+01  0.000000D+00  0.000000D+00  0.000000D+00
     27  0.000000D+00  0.000000D+00  0.526591D+01  0.000000D+00  0.000000D+00
     28 -0.417895D+00  0.000000D+00  0.000000D+00  0.554190D+01 -0.107975D+01
     29  0.595084D+01  0.000000D+00  0.000000D+00 -0.245841D+00  0.637851D+01
     30  0.595434D+01  0.000000D+00  0.000000D+00 -0.247370D+00  0.638590D+01
     31  0.619810D+01  0.000000D+00  0.000000D+00 -0.936199D+00  0.687748D+01
     32  0.000000D+00  0.000000D+00  0.000000D+00  0.000000D+00  0.000000D+00
     33  0.000000D+00 -0.425808D+00  0.000000D+00  0.000000D+00  0.000000D+00
     34  0.000000D+00  0.000000D+00 -0.428457D+00  0.000000D+00  0.000000D+00
               26            27            28            29            30 
     26  0.708850D+01
     27  0.000000D+00  0.710931D+01
     28  0.000000D+00  0.000000D+00  0.808545D+01
     29  0.000000D+00  0.000000D+00 -0.323953D+00  0.893314D+01
     30  0.000000D+00  0.000000D+00 -0.328102D+00  0.297982D+01  0.894616D+01
     31  0.000000D+00  0.000000D+00 -0.144497D+01  0.309624D+01  0.309972D+01
     32  0.000000D+00  0.000000D+00  0.000000D+00  0.000000D+00  0.000000D+00
     33 -0.561102D+00  0.000000D+00  0.000000D+00  0.000000D+00  0.000000D+00
     34  0.000000D+00 -0.568290D+00  0.000000D+00  0.000000D+00  0.000000D+00
               31            32            33            34 
     31  0.996391D+01
     32  0.000000D+00  0.893946D+01
     33  0.000000D+00  0.000000D+00  0.928871D+01
     34  0.000000D+00  0.000000D+00  0.000000D+00  0.929917D+01
 ****** Core Hamiltonian ****** 
                1             2             3             4             5 
      1 -0.224067D+02
      2 -0.463778D+01 -0.924481D+01
      3  0.000000D+00  0.000000D+00 -0.823269D+01
      4  0.000000D+00  0.000000D+00  0.000000D+00 -0.837602D+01
      5 -0.122860D+00 -0.882147D+00  0.000000D+00  0.000000D+00 -0.893895D+01
      6 -0.398503D+01 -0.742239D+01  0.000000D+00  0.000000D+00 -0.857474D+00
      7  0.000000D+00  0.000000D+00 -0.423084D+01  0.000000D+00  0.000000D+00
      8  0.000000D+00  0.000000D+00  0.000000D+00 -0.435484D+01  0.000000D+00
      9 -0.206398D-01 -0.615517D+00  0.000000D+00  0.000000D+00 -0.488513D+01
     10 -0.169432D+01 -0.597073D+01  0.000000D+00  0.000000D+00 -0.338475D+00
     11 -0.169826D+01 -0.609314D+01  0.000000D+00  0.000000D+00 -0.279429D+00
     12 -0.171316D+01 -0.656750D+01  0.000000D+00  0.000000D+00 -0.145998D+01
     13  0.000000D+00  0.000000D+00  0.000000D+00  0.000000D+00  0.000000D+00
     14  0.000000D+00  0.000000D+00 -0.586255D+00  0.000000D+00  0.000000D+00
     15  0.000000D+00  0.000000D+00  0.000000D+00 -0.483985D+00  0.000000D+00
     16 -0.644596D+00 -0.213813D+01  0.000000D+00 -0.223183D+01  0.134562D+01
     17 -0.194167D+01 -0.406146D+01  0.000000D+00 -0.167372D+01  0.703222D+00
     18 -0.644596D+00 -0.213813D+01  0.000000D+00  0.223183D+01  0.134562D+01
     19 -0.194167D+01 -0.406146D+01  0.000000D+00  0.167372D+01  0.703222D+00
     20 -0.161052D-03 -0.747382D+00  0.000000D+00  0.000000D+00 -0.154317D+01
     21 -0.194403D+00 -0.220247D+01  0.000000D+00  0.000000D+00 -0.345855D+01
     22  0.000000D+00  0.000000D+00 -0.973494D+00  0.000000D+00  0.000000D+00
     23  0.000000D+00  0.000000D+00  0.000000D+00 -0.975187D+00  0.000000D+00
     24  0.454599D+00  0.241531D+01  0.000000D+00  0.000000D+00  0.321479D+01
     25 -0.147314D+01 -0.391227D+01  0.000000D+00  0.000000D+00 -0.369250D+01
     26  0.000000D+00  0.000000D+00 -0.233568D+01  0.000000D+00  0.000000D+00
     27  0.000000D+00  0.000000D+00  0.000000D+00 -0.236197D+01  0.000000D+00
     28  0.327785D+01  0.560917D+01  0.000000D+00  0.000000D+00  0.279599D+01
     29 -0.607528D-01 -0.143895D+01  0.000000D+00  0.000000D+00 -0.197882D+01
     30 -0.608284D-01 -0.144263D+01  0.000000D+00  0.000000D+00 -0.198215D+01
     31 -0.221121D+01 -0.447817D+01  0.000000D+00  0.000000D+00 -0.473199D+01
     32  0.000000D+00  0.000000D+00  0.000000D+00  0.000000D+00  0.000000D+00
     33  0.000000D+00  0.000000D+00  0.230808D+01  0.000000D+00  0.000000D+00
     34  0.000000D+00  0.000000D+00  0.000000D+00  0.231858D+01  0.000000D+00
                6             7             8             9            10 
      6 -0.784632D+01
      7  0.000000D+00 -0.549266D+01
      8  0.000000D+00  0.000000D+00 -0.569555D+01
      9 -0.109555D+01  0.000000D+00  0.000000D+00 -0.670797D+01
     10 -0.509390D+01  0.000000D+00  0.000000D+00 -0.247454D+00 -0.679098D+01
     11 -0.522498D+01  0.000000D+00  0.000000D+00 -0.189466D+00 -0.300601D+01
     12 -0.575668D+01  0.000000D+00  0.000000D+00 -0.121818D+01 -0.313500D+01
     13  0.000000D+00  0.000000D+00  0.000000D+00  0.000000D+00  0.000000D+00
     14  0.000000D+00 -0.428603D+00  0.000000D+00  0.000000D+00  0.000000D+00
     15  0.000000D+00  0.000000D+00 -0.328165D+00  0.000000D+00  0.000000D+00
     16 -0.253447D+01  0.000000D+00 -0.258404D+01  0.157515D+01 -0.972417D+00
     17 -0.478944D+01  0.000000D+00 -0.259566D+01  0.119196D+01 -0.273398D+01
     18 -0.253447D+01  0.000000D+00  0.258404D+01  0.157515D+01 -0.972417D+00
     19 -0.478944D+01  0.000000D+00  0.259566D+01  0.119196D+01 -0.273398D+01
     20 -0.173618D+01  0.000000D+00  0.000000D+00 -0.318075D+01 -0.303058D-01
     21 -0.348570D+01  0.000000D+00  0.000000D+00 -0.542660D+01 -0.675607D+00
     22  0.000000D+00 -0.152997D+01  0.000000D+00  0.000000D+00  0.000000D+00
     23  0.000000D+00  0.000000D+00 -0.153200D+01  0.000000D+00  0.000000D+00
     24  0.179211D+01  0.000000D+00  0.000000D+00  0.115732D+01  0.875241D+00
     25 -0.519374D+01  0.000000D+00  0.000000D+00 -0.583625D+01 -0.220811D+01
     26  0.000000D+00 -0.351306D+01  0.000000D+00  0.000000D+00  0.000000D+00
     27  0.000000D+00  0.000000D+00 -0.354904D+01  0.000000D+00  0.000000D+00
     28  0.464872D+01  0.000000D+00  0.000000D+00  0.825990D+00  0.369453D+01
     29 -0.270761D+01  0.000000D+00  0.000000D+00 -0.402264D+01 -0.111183D+01
     30 -0.271334D+01  0.000000D+00  0.000000D+00 -0.402851D+01 -0.460495D+00
     31 -0.417278D+01  0.000000D+00  0.000000D+00 -0.398961D+01 -0.219642D+01
     32  0.000000D+00  0.000000D+00  0.000000D+00  0.000000D+00  0.000000D+00
     33  0.000000D+00  0.148281D+01  0.000000D+00  0.000000D+00  0.000000D+00
     34  0.000000D+00  0.000000D+00  0.149124D+01  0.000000D+00  0.000000D+00
               11            12            13            14            15 
     11 -0.705367D+01
     12 -0.319650D+01 -0.818389D+01
     13  0.000000D+00  0.000000D+00 -0.581803D+01
     14  0.000000D+00  0.000000D+00  0.000000D+00 -0.620499D+01
     15  0.000000D+00  0.000000D+00  0.000000D+00  0.000000D+00 -0.638949D+01
     16 -0.251817D+01 -0.155528D+01  0.000000D+00  0.000000D+00  0.160689D+01
     17 -0.320917D+01 -0.305347D+01  0.000000D+00  0.000000D+00  0.331906D+00
     18 -0.251817D+01 -0.155528D+01  0.000000D+00  0.000000D+00 -0.160689D+01
     19 -0.320917D+01 -0.305347D+01  0.000000D+00  0.000000D+00 -0.331906D+00
     20 -0.303075D-01 -0.215949D+01  0.000000D+00  0.000000D+00  0.000000D+00
     21 -0.676832D+00 -0.443454D+01  0.000000D+00  0.000000D+00  0.000000D+00
     22  0.000000D+00  0.000000D+00  0.000000D+00 -0.185569D+01  0.000000D+00
     23  0.000000D+00  0.000000D+00  0.000000D+00  0.000000D+00 -0.185826D+01
     24  0.877446D+00  0.420977D+01  0.000000D+00  0.000000D+00  0.000000D+00
     25 -0.223168D+01 -0.464745D+01  0.000000D+00  0.000000D+00  0.000000D+00
     26  0.000000D+00  0.000000D+00  0.000000D+00 -0.212123D+01  0.000000D+00
     27  0.000000D+00  0.000000D+00  0.000000D+00  0.000000D+00 -0.211914D+01
     28  0.375158D+01  0.443471D+01  0.000000D+00  0.000000D+00  0.000000D+00
     29 -0.460495D+00 -0.228532D+01  0.000000D+00  0.000000D+00  0.000000D+00
     30 -0.111853D+01 -0.228865D+01  0.000000D+00  0.000000D+00  0.000000D+00
     31 -0.220755D+01 -0.507441D+01  0.000000D+00  0.000000D+00  0.000000D+00
     32  0.000000D+00  0.000000D+00 -0.981554D+00  0.000000D+00  0.000000D+00
     33  0.000000D+00  0.000000D+00  0.000000D+00  0.311162D+01  0.000000D+00
     34  0.000000D+00  0.000000D+00  0.000000D+00  0.000000D+00  0.312109D+01
               16            17            18            19            20 
     16 -0.548174D+01
     17 -0.390942D+01 -0.535641D+01
     18 -0.124120D+00 -0.916942D+00 -0.548174D+01
     19 -0.916942D+00 -0.239324D+01 -0.390942D+01 -0.535641D+01
     20 -0.143201D-02 -0.387202D+00 -0.143201D-02 -0.387202D+00 -0.350936D+02
     21 -0.386705D-01 -0.948137D+00 -0.386705D-01 -0.948137D+00 -0.784597D+01
     22  0.000000D+00  0.000000D+00  0.000000D+00  0.000000D+00  0.000000D+00
     23 -0.304521D-01 -0.287901D+00  0.304521D-01  0.287901D+00  0.000000D+00
     24  0.658545D-01  0.664467D+00  0.658545D-01  0.664467D+00  0.926664D-01
     25 -0.409357D+00 -0.192279D+01 -0.409357D+00 -0.192279D+01 -0.571448D+01
     26  0.000000D+00  0.000000D+00  0.000000D+00  0.000000D+00  0.000000D+00
     27 -0.449764D+00 -0.963948D+00  0.449764D+00  0.963948D+00  0.000000D+00
     28  0.971113D+00  0.242785D+01  0.971113D+00  0.242785D+01  0.127693D-01
     29 -0.335088D-01 -0.782340D+00 -0.335088D-01 -0.782340D+00 -0.116829D+01
     30 -0.803299D-01 -0.889697D+00 -0.803299D-01 -0.889697D+00 -0.116834D+01
     31 -0.259045D+00 -0.150716D+01 -0.259045D+00 -0.150716D+01 -0.117181D+01
     32  0.000000D+00  0.000000D+00  0.000000D+00  0.000000D+00  0.000000D+00
     33  0.000000D+00  0.000000D+00  0.000000D+00  0.000000D+00  0.000000D+00
     34  0.170019D+00  0.419340D+00 -0.170019D+00 -0.419340D+00  0.000000D+00
               21            22            23            24            25 
     21 -0.119725D+02
     22  0.000000D+00 -0.104431D+02
     23  0.000000D+00  0.000000D+00 -0.104471D+02
     24  0.632202D+00  0.000000D+00  0.000000D+00 -0.107202D+02
     25 -0.895685D+01  0.000000D+00  0.000000D+00  0.613146D+00 -0.933421D+01
     26  0.000000D+00 -0.471464D+01  0.000000D+00  0.000000D+00  0.000000D+00
     27  0.000000D+00  0.000000D+00 -0.471867D+01  0.000000D+00  0.000000D+00
     28  0.417895D+00  0.000000D+00  0.000000D+00 -0.499466D+01  0.107975D+01
     29 -0.570107D+01  0.000000D+00  0.000000D+00  0.245841D+00 -0.605042D+01
     30 -0.570458D+01  0.000000D+00  0.000000D+00  0.247370D+00 -0.605782D+01
     31 -0.594833D+01  0.000000D+00  0.000000D+00  0.936199D+00 -0.654940D+01
     32  0.000000D+00  0.000000D+00  0.000000D+00  0.000000D+00  0.000000D+00
     33  0.000000D+00  0.425808D+00  0.000000D+00  0.000000D+00  0.000000D+00
     34  0.000000D+00  0.000000D+00  0.428457D+00  0.000000D+00  0.000000D+00
               26            27            28            29            30 
     26 -0.641349D+01
     27  0.000000D+00 -0.643430D+01
     28  0.000000D+00  0.000000D+00 -0.741043D+01
     29  0.000000D+00  0.000000D+00  0.323953D+00 -0.719980D+01
     30  0.000000D+00  0.000000D+00  0.328102D+00 -0.311315D+01 -0.721283D+01
     31  0.000000D+00  0.000000D+00  0.144497D+01 -0.322957D+01 -0.323306D+01
     32  0.000000D+00  0.000000D+00  0.000000D+00  0.000000D+00  0.000000D+00
     33  0.561102D+00  0.000000D+00  0.000000D+00  0.000000D+00  0.000000D+00
     34  0.000000D+00  0.568290D+00  0.000000D+00  0.000000D+00  0.000000D+00
               31            32            33            34 
     31 -0.823058D+01
     32  0.000000D+00 -0.613946D+01
     33  0.000000D+00  0.000000D+00 -0.648871D+01
     34  0.000000D+00  0.000000D+00  0.000000D+00 -0.649917D+01
 SVDSVc IOpt=   1 NormSV=T IR=1
 SVDSVc V= 5.68D+00 3.60D+00 1.80D+00 1.07D+00 1.00D+00 9.23D-01 8.44D-01 8.05D-01 6.85D-01 6.02D-01
 SVDSVc V= 3.90D-01 3.27D-01 2.73D-01 1.87D-01 9.51D-02 4.73D-02 3.55D-02 9.05D-03
 SVDSVc IOpt=   1 NormSV=T IR=2
 SVDSVc V= 1.12D+00 8.75D-01
 SVDSVc IOpt=   1 NormSV=T IR=3
 SVDSVc V= 2.22D+00 1.29D+00 1.21D+00 5.87D-01 4.33D-01 2.57D-01
 SVDSVc IOpt=   1 NormSV=T IR=4
 SVDSVc V= 2.81D+00 1.72D+00 1.25D+00 6.26D-01 5.63D-01 3.64D-01 2.52D-01 4.27D-02
 TstOVc:  Largest diagonal error= 4.55D-15 IB=1 I=   16.
 TstOVc:  Largest same sym error= 8.24D-15 IB=1 I=   18 J=   14.
 TstOVc:  Largest diff sym error= 6.11D-16 IB=4 JB=1 I=   34 J=   17.
 Orthogonalized basis functions: 
                 1             2             3             4             5 
      1   0.313314D-01 -0.221403D-01 -0.553543D-01 -0.450651D+00  0.573443D+00
      2   0.149394D+00 -0.814147D-01 -0.970991D-01 -0.172512D+00  0.869785D-01
      3   0.000000D+00  0.000000D+00  0.000000D+00  0.000000D+00  0.000000D+00
      4   0.000000D+00  0.000000D+00  0.000000D+00  0.000000D+00  0.000000D+00
      5   0.328081D-01  0.154646D+00 -0.291066D+00 -0.120902D-01 -0.715594D-01
      6   0.163502D+00 -0.684054D-01  0.500360D-01 -0.396196D-01 -0.334657D-02
      7   0.000000D+00  0.000000D+00  0.000000D+00  0.000000D+00  0.000000D+00
      8   0.000000D+00  0.000000D+00  0.000000D+00  0.000000D+00  0.000000D+00
      9   0.369413D-01  0.230757D+00 -0.127773D+00 -0.121779D+00 -0.247708D-01
     10   0.104247D+00 -0.677027D-01 -0.912226D-01 -0.299806D+00  0.772290D-01
     11   0.111821D+00 -0.891900D-01 -0.156926D-01 -0.105751D+00 -0.708515D-01
     12   0.129929D+00 -0.239957D-01 -0.775058D-01  0.207684D+00  0.243149D-02
     13   0.000000D+00  0.000000D+00  0.000000D+00  0.000000D+00  0.000000D+00
     14   0.000000D+00  0.000000D+00  0.000000D+00  0.000000D+00  0.000000D+00
     15   0.000000D+00  0.000000D+00  0.000000D+00  0.000000D+00  0.000000D+00
     16   0.556502D-01 -0.104913D+00  0.148148D+00  0.138639D+00 -0.861273D-01
     17   0.100573D+00 -0.116207D+00  0.129674D+00  0.835783D-01 -0.515097D-01
     18   0.556502D-01 -0.104913D+00  0.148148D+00  0.138639D+00 -0.861273D-01
     19   0.100573D+00 -0.116207D+00  0.129674D+00  0.835783D-01 -0.515097D-01
     20   0.165986D-01  0.394229D-01  0.436218D-01  0.499321D+00  0.743233D+00
     21   0.889807D-01  0.173001D+00  0.128279D+00  0.192998D+00  0.807341D-01
     22   0.000000D+00  0.000000D+00  0.000000D+00  0.000000D+00  0.000000D+00
     23   0.000000D+00  0.000000D+00  0.000000D+00  0.000000D+00  0.000000D+00
     24  -0.406879D-01  0.155941D-01  0.386339D+00 -0.408480D+00  0.138227D+00
     25   0.126507D+00  0.174188D+00  0.134768D+00 -0.127728D-01 -0.881737D-02
     26   0.000000D+00  0.000000D+00  0.000000D+00  0.000000D+00  0.000000D+00
     27   0.000000D+00  0.000000D+00  0.000000D+00  0.000000D+00  0.000000D+00
     28  -0.914455D-01  0.811287D-01  0.362552D+00 -0.711970D-01  0.500738D-02
     29   0.761635D-01  0.145157D+00  0.117351D+00  0.430524D-02 -0.123829D+00
     30   0.769868D-01  0.143032D+00  0.127556D+00  0.534506D-01 -0.167306D+00
     31   0.105161D+00  0.128803D+00  0.191959D-01 -0.155012D+00  0.222577D-01
     32   0.000000D+00  0.000000D+00  0.000000D+00  0.000000D+00  0.000000D+00
     33   0.000000D+00  0.000000D+00  0.000000D+00  0.000000D+00  0.000000D+00
     34   0.000000D+00  0.000000D+00  0.000000D+00  0.000000D+00  0.000000D+00
                 6             7             8             9            10 
      1   0.648214D+00  0.923094D-01 -0.170050D+00 -0.217933D-01  0.237490D-01
      2  -0.167879D+00 -0.123767D+00  0.971168D-01  0.236024D+00  0.217531D+00
      3   0.000000D+00  0.000000D+00  0.000000D+00  0.000000D+00  0.000000D+00
      4   0.000000D+00  0.000000D+00  0.000000D+00  0.000000D+00  0.000000D+00
      5  -0.231245D-02  0.384538D+00  0.310544D+00 -0.508235D+00 -0.358930D+00
      6  -0.342167D-01  0.251765D-01 -0.120276D+00 -0.836400D-01 -0.162823D+00
      7   0.000000D+00  0.000000D+00  0.000000D+00  0.000000D+00  0.000000D+00
      8   0.000000D+00  0.000000D+00  0.000000D+00  0.000000D+00  0.000000D+00
      9  -0.132239D+00  0.228807D+00 -0.148260D+00  0.996133D-01  0.214300D+00
     10  -0.507768D+00 -0.302871D+00 -0.230808D+00 -0.931811D-01 -0.363190D+00
     11  -0.181117D+00  0.547055D+00  0.152790D+00  0.279573D+00  0.594116D+00
     12   0.181815D+00 -0.509905D+00  0.255478D+00  0.294592D+00  0.210608D+00
     13   0.000000D+00  0.000000D+00  0.000000D+00  0.000000D+00  0.000000D+00
     14   0.000000D+00  0.000000D+00  0.000000D+00  0.000000D+00  0.000000D+00
     15   0.000000D+00  0.000000D+00  0.000000D+00  0.000000D+00  0.000000D+00
     16   0.134903D+00  0.229946D+00  0.822149D-01 -0.140530D+00  0.147192D+00
     17   0.875802D-01  0.663490D-01 -0.397513D-01 -0.255841D+00 -0.342470D+00
     18   0.134903D+00  0.229946D+00  0.822149D-01 -0.140530D+00  0.147192D+00
     19   0.875802D-01  0.663490D-01 -0.397513D-01 -0.255841D+00 -0.342470D+00
     20  -0.324009D+00  0.153853D+00  0.149229D-02 -0.243862D-01 -0.117853D-01
     21   0.924430D-01 -0.120101D+00  0.673950D-02  0.335513D-01  0.918605D-02
     22   0.000000D+00  0.000000D+00  0.000000D+00  0.000000D+00  0.000000D+00
     23   0.000000D+00  0.000000D+00  0.000000D+00  0.000000D+00  0.000000D+00
     24  -0.321803D+00  0.122391D+00  0.145011D+00 -0.191814D-01 -0.322278D-01
     25   0.676659D-02  0.713210D-02 -0.674030D-01 -0.203440D-02 -0.149561D-01
     26   0.000000D+00  0.000000D+00  0.000000D+00  0.000000D+00  0.000000D+00
     27   0.000000D+00  0.000000D+00  0.000000D+00  0.000000D+00  0.000000D+00
     28   0.286366D-01 -0.152447D+00  0.262703D+00  0.608871D-02  0.226885D-01
     29   0.192929D-01 -0.187512D+00 -0.495366D+00 -0.550915D+00  0.561935D+00
     30   0.140769D+00  0.235143D+00 -0.266570D+00  0.680265D+00 -0.533730D+00
     31   0.548944D-01 -0.165692D+00  0.708224D+00 -0.129222D+00 -0.558095D-01
     32   0.000000D+00  0.000000D+00  0.000000D+00  0.000000D+00  0.000000D+00
     33   0.000000D+00  0.000000D+00  0.000000D+00  0.000000D+00  0.000000D+00
     34   0.000000D+00  0.000000D+00  0.000000D+00  0.000000D+00  0.000000D+00
                11            12            13            14            15 
      1   0.670298D-01  0.109360D+00  0.455652D-01 -0.957829D-01 -0.106354D+00
      2   0.363226D-01  0.267108D-01  0.379989D-01 -0.371617D+00 -0.707689D+00
      3   0.000000D+00  0.000000D+00  0.000000D+00  0.000000D+00  0.000000D+00
      4   0.000000D+00  0.000000D+00  0.000000D+00  0.000000D+00  0.000000D+00
      5  -0.151959D+00  0.251701D-01 -0.102927D+00 -0.749365D+00 -0.133984D+01
      6   0.755878D-01 -0.342148D+00 -0.474694D-02  0.548904D+00 -0.214288D+00
      7   0.000000D+00  0.000000D+00  0.000000D+00  0.000000D+00  0.000000D+00
      8   0.000000D+00  0.000000D+00  0.000000D+00  0.000000D+00  0.000000D+00
      9   0.294098D+00  0.617418D-01 -0.504996D+00  0.142147D+01 -0.273415D+00
     10   0.318879D+00  0.738889D+00  0.123953D+00 -0.249090D+00  0.541136D-01
     11   0.327068D-01 -0.253548D+00  0.707528D+00 -0.344992D+00  0.655917D-01
     12  -0.217629D+00 -0.229432D+00 -0.681176D+00 -0.119066D+00 -0.113762D+01
     13   0.000000D+00  0.000000D+00  0.000000D+00  0.000000D+00  0.000000D+00
     14   0.000000D+00  0.000000D+00  0.000000D+00  0.000000D+00  0.000000D+00
     15   0.000000D+00  0.000000D+00  0.000000D+00  0.000000D+00  0.000000D+00
     16   0.155957D+00  0.779626D+00 -0.513848D+00  0.111664D-01 -0.103512D-02
     17  -0.679674D-02 -0.430692D+00  0.185791D+00  0.352313D+00 -0.527173D-01
     18   0.155957D+00  0.779626D+00 -0.513848D+00  0.111664D-01 -0.103512D-02
     19  -0.679674D-02 -0.430692D+00  0.185791D+00  0.352313D+00 -0.527173D-01
     20   0.193941D+00 -0.153470D+00 -0.183872D+00 -0.232460D+00  0.244416D+00
     21  -0.813598D+00  0.726855D+00  0.997198D+00  0.352652D+00 -0.240325D+00
     22   0.000000D+00  0.000000D+00  0.000000D+00  0.000000D+00  0.000000D+00
     23   0.000000D+00  0.000000D+00  0.000000D+00  0.000000D+00  0.000000D+00
     24  -0.803741D+00 -0.182145D+00 -0.661811D+00 -0.362752D-01 -0.360990D+00
     25   0.302640D+00 -0.133647D+00  0.428676D-01  0.286754D+00 -0.478925D+00
     26   0.000000D+00  0.000000D+00  0.000000D+00  0.000000D+00  0.000000D+00
     27   0.000000D+00  0.000000D+00  0.000000D+00  0.000000D+00  0.000000D+00
     28   0.871958D+00  0.401750D-02  0.481162D+00 -0.222004D+00 -0.134431D+01
     29   0.158824D-02 -0.261923D+00 -0.170606D+00 -0.880736D+00  0.472781D+00
     30   0.828658D-01 -0.425739D-02 -0.294864D+00 -0.885783D+00  0.473823D+00
     31   0.200117D+00 -0.530252D-01 -0.603329D-01 -0.147385D-01  0.201134D+01
     32   0.000000D+00  0.000000D+00  0.000000D+00  0.000000D+00  0.000000D+00
     33   0.000000D+00  0.000000D+00  0.000000D+00  0.000000D+00  0.000000D+00
     34   0.000000D+00  0.000000D+00  0.000000D+00  0.000000D+00  0.000000D+00
                16            17            18            19            20 
      1  -0.364365D+00 -0.357761D+00 -0.128441D-01  0.000000D+00  0.000000D+00
      2   0.353622D+01  0.620280D+00 -0.272457D+00  0.000000D+00  0.000000D+00
      3   0.000000D+00  0.000000D+00  0.000000D+00  0.000000D+00  0.000000D+00
      4   0.000000D+00  0.000000D+00  0.000000D+00  0.000000D+00  0.000000D+00
      5  -0.165532D+00  0.952676D-01 -0.643078D+00  0.000000D+00  0.000000D+00
      6  -0.106912D+01  0.351749D+01 -0.466854D+01  0.000000D+00  0.000000D+00
      7   0.000000D+00  0.000000D+00  0.000000D+00  0.000000D+00  0.000000D+00
      8   0.000000D+00  0.000000D+00  0.000000D+00  0.000000D+00  0.000000D+00
      9   0.447603D+00 -0.160560D+01 -0.239194D+01  0.000000D+00  0.000000D+00
     10  -0.129320D+01 -0.114763D+01  0.298962D+00  0.000000D+00  0.000000D+00
     11  -0.147842D+01 -0.936395D+00  0.164554D+00  0.000000D+00  0.000000D+00
     12  -0.155059D+01 -0.123295D+01 -0.295756D+00  0.000000D+00  0.000000D+00
     13   0.000000D+00  0.000000D+00  0.000000D+00  0.666673D+00  0.755920D+00
     14   0.000000D+00  0.000000D+00  0.000000D+00  0.000000D+00  0.000000D+00
     15   0.000000D+00  0.000000D+00  0.000000D+00  0.000000D+00  0.000000D+00
     16   0.101465D+00  0.157138D+00  0.122807D+00  0.000000D+00  0.000000D+00
     17   0.576928D+00 -0.181012D+01  0.260493D+00  0.000000D+00  0.000000D+00
     18   0.101465D+00  0.157138D+00  0.122807D+00  0.000000D+00  0.000000D+00
     19   0.576928D+00 -0.181012D+01  0.260493D+00  0.000000D+00  0.000000D+00
     20   0.343822D-01 -0.971754D-01 -0.420985D+00  0.000000D+00  0.000000D+00
     21   0.144906D+00 -0.159950D+00 -0.138833D+01  0.000000D+00  0.000000D+00
     22   0.000000D+00  0.000000D+00  0.000000D+00  0.000000D+00  0.000000D+00
     23   0.000000D+00  0.000000D+00  0.000000D+00  0.000000D+00  0.000000D+00
     24  -0.157001D+00 -0.115150D+00  0.184941D+00  0.000000D+00  0.000000D+00
     25  -0.306024D+00  0.138950D+01  0.821796D+01  0.000000D+00  0.000000D+00
     26   0.000000D+00  0.000000D+00  0.000000D+00  0.000000D+00  0.000000D+00
     27   0.000000D+00  0.000000D+00  0.000000D+00  0.000000D+00  0.000000D+00
     28  -0.429151D-01 -0.349730D+00 -0.268881D+01  0.000000D+00  0.000000D+00
     29   0.165490D+00 -0.416335D+00 -0.154296D+01  0.000000D+00  0.000000D+00
     30   0.161543D+00 -0.362858D+00 -0.153937D+01  0.000000D+00  0.000000D+00
     31   0.104412D+00 -0.589048D-01 -0.710885D+00  0.000000D+00  0.000000D+00
     32   0.000000D+00  0.000000D+00  0.000000D+00  0.666673D+00 -0.755920D+00
     33   0.000000D+00  0.000000D+00  0.000000D+00  0.000000D+00  0.000000D+00
     34   0.000000D+00  0.000000D+00  0.000000D+00  0.000000D+00  0.000000D+00
                21            22            23            24            25 
      1   0.000000D+00  0.000000D+00  0.000000D+00  0.000000D+00  0.000000D+00
      2   0.000000D+00  0.000000D+00  0.000000D+00  0.000000D+00  0.000000D+00
      3   0.299071D+00 -0.131882D+00 -0.446188D+00  0.310619D+00  0.102626D+01
      4   0.000000D+00  0.000000D+00  0.000000D+00  0.000000D+00  0.000000D+00
      5   0.000000D+00  0.000000D+00  0.000000D+00  0.000000D+00  0.000000D+00
      6   0.000000D+00  0.000000D+00  0.000000D+00  0.000000D+00  0.000000D+00
      7   0.351326D+00 -0.237691D+00 -0.260952D+00 -0.351501D+00 -0.577068D+00
      8   0.000000D+00  0.000000D+00  0.000000D+00  0.000000D+00  0.000000D+00
      9   0.000000D+00  0.000000D+00  0.000000D+00  0.000000D+00  0.000000D+00
     10   0.000000D+00  0.000000D+00  0.000000D+00  0.000000D+00  0.000000D+00
     11   0.000000D+00  0.000000D+00  0.000000D+00  0.000000D+00  0.000000D+00
     12   0.000000D+00  0.000000D+00  0.000000D+00  0.000000D+00  0.000000D+00
     13   0.000000D+00  0.000000D+00  0.000000D+00  0.000000D+00  0.000000D+00
     14   0.161790D+00  0.600930D+00  0.232546D+00 -0.550757D+00  0.597383D+00
     15   0.000000D+00  0.000000D+00  0.000000D+00  0.000000D+00  0.000000D+00
     16   0.000000D+00  0.000000D+00  0.000000D+00  0.000000D+00  0.000000D+00
     17   0.000000D+00  0.000000D+00  0.000000D+00  0.000000D+00  0.000000D+00
     18   0.000000D+00  0.000000D+00  0.000000D+00  0.000000D+00  0.000000D+00
     19   0.000000D+00  0.000000D+00  0.000000D+00  0.000000D+00  0.000000D+00
     20   0.000000D+00  0.000000D+00  0.000000D+00  0.000000D+00  0.000000D+00
     21   0.000000D+00  0.000000D+00  0.000000D+00  0.000000D+00  0.000000D+00
     22   0.237220D+00 -0.569340D-01  0.549744D+00  0.860902D+00  0.326857D-01
     23   0.000000D+00  0.000000D+00  0.000000D+00  0.000000D+00  0.000000D+00
     24   0.000000D+00  0.000000D+00  0.000000D+00  0.000000D+00  0.000000D+00
     25   0.000000D+00  0.000000D+00  0.000000D+00  0.000000D+00  0.000000D+00
     26   0.356497D+00 -0.149602D+00  0.310704D+00 -0.458466D+00 -0.257750D+00
     27   0.000000D+00  0.000000D+00  0.000000D+00  0.000000D+00  0.000000D+00
     28   0.000000D+00  0.000000D+00  0.000000D+00  0.000000D+00  0.000000D+00
     29   0.000000D+00  0.000000D+00  0.000000D+00  0.000000D+00  0.000000D+00
     30   0.000000D+00  0.000000D+00  0.000000D+00  0.000000D+00  0.000000D+00
     31   0.000000D+00  0.000000D+00  0.000000D+00  0.000000D+00  0.000000D+00
     32   0.000000D+00  0.000000D+00  0.000000D+00  0.000000D+00  0.000000D+00
     33  -0.164850D+00 -0.561501D+00  0.325615D+00 -0.478734D+00  0.707931D+00
     34   0.000000D+00  0.000000D+00  0.000000D+00  0.000000D+00  0.000000D+00
                26            27            28            29            30 
      1   0.000000D+00  0.000000D+00  0.000000D+00  0.000000D+00  0.000000D+00
      2   0.000000D+00  0.000000D+00  0.000000D+00  0.000000D+00  0.000000D+00
[...]
  13        4XY        -0.00000   0.00000   0.00000   0.00000   0.00000
  14        4XZ         0.00000   0.00000   0.00000   0.00000   0.00000
  15        4YZ        -0.00000   0.00000   0.00000   0.00000   0.00000
  16 2   H  1S          0.05051   0.00000   0.03771   0.01155  -0.00057
  17        2S          0.01803   0.00000   0.02013   0.00403   0.00003
  18 3   H  1S          0.05051   0.00000   0.03771   0.01155  -0.00057
  19        2S          0.01803   0.00000   0.02013   0.00403   0.00003
  20 4   O  1S          0.00147   0.00000   0.00000   0.00074   0.00000
  21        2S         -0.02510   0.00000   0.00000  -0.01150  -0.00054
  22        2PX         0.00000   0.02525   0.00000   0.00000   0.00000
  23        2PY         0.00000   0.00000   0.00858   0.00000  -0.00000
  24        2PZ         0.01248   0.00000   0.00000   0.00521  -0.00144
  25        3S         -0.06688   0.00000   0.00000  -0.02757  -0.00053
  26        3PX         0.00000   0.04831   0.00000   0.00000   0.00000
  27        3PY         0.00000   0.00000   0.00955   0.00000  -0.00000
  28        3PZ         0.01585   0.00000   0.00000   0.00118  -0.00309
  29        4XX        -0.00059   0.00000   0.00000   0.00003   0.00004
  30        4YY        -0.00061   0.00000  -0.00000  -0.00016   0.00001
  31        4ZZ         0.00398   0.00000   0.00000   0.00123  -0.00032
  32        4XY         0.00000   0.00000  -0.00000   0.00000  -0.00000
  33        4XZ        -0.00000   0.00187   0.00000  -0.00000   0.00000
  34        4YZ         0.00000  -0.00000   0.00142   0.00000   0.00000
                          11        12        13        14        15
  11        4YY         0.00261
  12        4ZZ        -0.00055   0.00216
  13        4XY         0.00000   0.00000   0.00000
  14        4XZ         0.00000   0.00000   0.00000   0.00215
  15        4YZ         0.00000   0.00000   0.00000  -0.00000   0.00282
  16 2   H  1S          0.00383  -0.00091   0.00000   0.00000   0.00311
  17        2S          0.00163  -0.00090   0.00000   0.00000   0.00055
  18 3   H  1S          0.00383  -0.00091   0.00000   0.00000   0.00311
  19        2S          0.00163  -0.00090   0.00000   0.00000   0.00055
  20 4   O  1S          0.00001  -0.00081   0.00000   0.00000   0.00000
  21        2S         -0.00085   0.00925   0.00000  -0.00000   0.00000
  22        2PX        -0.00000   0.00000   0.00000   0.00684   0.00000
  23        2PY         0.00000   0.00000   0.00000   0.00000   0.00538
  24        2PZ        -0.00181   0.00717   0.00000   0.00000   0.00000
  25        3S         -0.00167   0.00756   0.00000  -0.00000   0.00000
  26        3PX        -0.00000   0.00000   0.00000   0.00532   0.00000
  27        3PY        -0.00000   0.00000   0.00000   0.00000   0.00463
  28        3PZ        -0.00411   0.00317   0.00000  -0.00000   0.00000
  29        4XX         0.00001  -0.00007   0.00000   0.00000  -0.00000
  30        4YY         0.00003  -0.00007   0.00000   0.00000  -0.00000
  31        4ZZ        -0.00028   0.00063   0.00000  -0.00000   0.00000
  32        4XY         0.00000   0.00000   0.00000   0.00000   0.00000
  33        4XZ         0.00000   0.00000   0.00000   0.00101   0.00000
  34        4YZ         0.00000   0.00000  -0.00000  -0.00000   0.00031
                          16        17        18        19        20
  16 2   H  1S          0.19604
  17        2S          0.05271   0.04194
  18 3   H  1S         -0.00036  -0.00476   0.19604
  19        2S         -0.00476  -0.00953   0.05271   0.04194
  20 4   O  1S          0.00000   0.00001   0.00000   0.00001   2.08107
  21        2S         -0.00005  -0.00037  -0.00005  -0.00037  -0.04714
  22        2PX         0.00000  -0.00000   0.00000   0.00000   0.00000
  23        2PY        -0.00000  -0.00128  -0.00000  -0.00128   0.00000
  24        2PZ        -0.00021  -0.00282  -0.00021  -0.00282   0.00000
  25        3S         -0.00043   0.00256  -0.00043   0.00256  -0.03854
  26        3PX        -0.00000  -0.00000   0.00000   0.00000   0.00000
  27        3PY        -0.00105  -0.00494  -0.00105  -0.00494   0.00000
  28        3PZ        -0.00227  -0.00589  -0.00227  -0.00589   0.00000
  29        4XX        -0.00000   0.00003  -0.00000   0.00003  -0.00048
  30        4YY        -0.00000   0.00005  -0.00000   0.00005  -0.00051
  31        4ZZ        -0.00001  -0.00039  -0.00001  -0.00039  -0.00040
  32        4XY         0.00000   0.00000   0.00000   0.00000  -0.00000
  33        4XZ         0.00000   0.00000   0.00000   0.00000   0.00000
  34        4YZ         0.00012   0.00007   0.00012   0.00007   0.00000
                          21        22        23        24        25
  21        2S          0.58643
  22        2PX         0.00000   0.67491
  23        2PY         0.00000   0.00000   0.59650
  24        2PZ         0.00000   0.00000   0.00000   0.69533
  25        3S          0.44828   0.00000   0.00000   0.00000   0.66934
  26        3PX         0.00000   0.18650   0.00000   0.00000   0.00000
  27        3PY         0.00000  -0.00000   0.16357   0.00000   0.00000
  28        3PZ         0.00000   0.00000   0.00000   0.14005   0.00000
  29        4XX        -0.00175   0.00000   0.00000   0.00000  -0.00036
  30        4YY        -0.00081   0.00000   0.00000   0.00000   0.00094
  31        4ZZ        -0.00336   0.00000   0.00000   0.00000  -0.01488
  32        4XY        -0.00000   0.00000   0.00000   0.00000   0.00000
  33        4XZ        -0.00000   0.00000   0.00000   0.00000   0.00000
  34        4YZ        -0.00000   0.00000   0.00000   0.00000  -0.00000
                          26        27        28        29        30
  26        3PX         0.20494
  27        3PY        -0.00000   0.18113
  28        3PZ         0.00000   0.00000   0.11261
  29        4XX         0.00000   0.00000   0.00000   0.00025
  30        4YY         0.00000   0.00000   0.00000   0.00005   0.00044
  31        4ZZ         0.00000   0.00000   0.00000  -0.00009  -0.00019
  32        4XY         0.00000   0.00000   0.00000   0.00000   0.00000
  33        4XZ         0.00000   0.00000   0.00000   0.00000   0.00000
  34        4YZ         0.00000   0.00000   0.00000   0.00000   0.00000
                          31        32        33        34
  31        4ZZ         0.00324
  32        4XY         0.00000   0.00000
  33        4XZ         0.00000   0.00000   0.00306
  34        4YZ         0.00000  -0.00000   0.00000   0.00195
     Gross orbital populations:
                         Total     Alpha     Beta      Spin
   1 1   C  1S          1.99190   0.99591   0.99599  -0.00007
   2        2S          0.77186   0.37988   0.39198  -0.01210
   3        2PX         0.37180   0.16655   0.20524  -0.03869
   4        2PY         0.82126   0.41883   0.40243   0.01640
   5        2PZ         0.75705   0.36911   0.38794  -0.01882
   6        3S          0.55034   0.26527   0.28507  -0.01980
   7        3PX         0.16671   0.07342   0.09330  -0.01988
   8        3PY         0.31784   0.14886   0.16898  -0.02012
   9        3PZ         0.07302   0.03265   0.04037  -0.00773
  10        4XX        -0.02992  -0.01545  -0.01448  -0.00097
  11        4YY         0.01617   0.00919   0.00697   0.00222
  12        4ZZ         0.02348   0.01157   0.01191  -0.00034
  13        4XY         0.00000   0.00000   0.00000   0.00000
  14        4XZ         0.01533   0.00762   0.00771  -0.00008
  15        4YZ         0.02046   0.02043   0.00003   0.02040
  16 2   H  1S          0.47218   0.27953   0.19265   0.08688
  17        2S          0.14942   0.09697   0.05245   0.04452
  18 3   H  1S          0.47218   0.27953   0.19265   0.08688
  19        2S          0.14942   0.09697   0.05245   0.04452
  20 4   O  1S          1.99300   0.99640   0.99660  -0.00019
  21        2S          0.98937   0.50578   0.48359   0.02219
  22        2PX         0.92845   0.48899   0.43946   0.04953
  23        2PY         0.78571   0.66748   0.11823   0.54925
  24        2PZ         1.01667   0.51515   0.50152   0.01363
  25        3S          0.94518   0.46708   0.47810  -0.01102
  26        3PX         0.50509   0.25739   0.24770   0.00969
  27        3PY         0.36178   0.28477   0.07701   0.20776
  28        3PZ         0.34070   0.16898   0.17173  -0.00275
  29        4XX        -0.00423  -0.00476   0.00052  -0.00528
  30        4YY        -0.00233   0.00532  -0.00765   0.01296
  31        4ZZ         0.00778   0.00029   0.00749  -0.00720
  32        4XY         0.00000   0.00000   0.00000   0.00000
  33        4XZ         0.01261   0.00602   0.00659  -0.00056
  34        4YZ         0.00971   0.00424   0.00547  -0.00123
          Condensed to atoms (all electrons):
               1          2          3          4
     1  C    4.788035   0.314477   0.314477   0.450316
     2  H    0.314477   0.343400  -0.019410  -0.016871
     3  H    0.314477  -0.019410   0.343400  -0.016871
     4  O    0.450316  -0.016871  -0.016871   7.472930
          Atomic-Atomic Spin Densities.
               1          2          3          4
     1  C   -0.112554   0.040983   0.040983  -0.068994
     2  H    0.040983   0.122488  -0.016959  -0.015107
     3  H    0.040983  -0.016959   0.122488  -0.015107
     4  O   -0.068994  -0.015107  -0.015107   0.935976
 Mulliken charges and spin densities:
               1          2
     1  C    0.132696  -0.099581
     2  H    0.378404   0.131406
     3  H    0.378404   0.131406
     4  O    0.110496   0.836769
 Sum of Mulliken charges =   1.00000   1.00000
 Mulliken charges and spin densities with hydrogens summed into heavy atoms:
               1          2
     1  C    0.889504   0.163231
     4  O    0.110496   0.836769
 Electronic spatial extent (au):  <R**2>=             51.5238
 Charge=              1.0000 electrons
 Dipole moment (field-independent basis, Debye):
    X=             -0.0000    Y=              0.0000    Z=             -3.1894  Tot=              3.1894
 Quadrupole moment (field-independent basis, Debye-Ang):
   XX=             -9.7624   YY=             -7.2080   ZZ=             -6.0428
   XY=              0.0000   XZ=              0.0000   YZ=             -0.0000
 Traceless Quadrupole moment (field-independent basis, Debye-Ang):
   XX=             -2.0914   YY=              0.4631   ZZ=              1.6283
   XY=              0.0000   XZ=              0.0000   YZ=             -0.0000
 Octapole moment (field-independent basis, Debye-Ang**2):
  XXX=              0.0000  YYY=             -0.0000  ZZZ=             -2.7932  XYY=             -0.0000
  XXY=              0.0000  XXZ=              0.2228  XZZ=             -0.0000  YZZ=              0.0000
  YYZ=             -2.6180  XYZ=             -0.0000
 Hexadecapole moment (field-independent basis, Debye-Ang**3):
 XXXX=             -7.1291 YYYY=             -9.5091 ZZZZ=            -30.2075 XXXY=             -0.0000
 XXXZ=             -0.0000 YYYX=              0.0000 YYYZ=              0.0000 ZZZX=              0.0000
 ZZZY=              0.0000 XXYY=             -3.3444 XXZZ=             -7.0041 YYZZ=             -3.8791
 XXYZ=              0.0000 YYXZ=              0.0000 ZZXY=              0.0000
 N-N= 3.122056699688D+01 E-N=-3.242354446947D+02  KE= 1.130435338415D+02
 Symmetry A1   KE= 1.037691304507D+02
 Symmetry A2   KE= 1.005191626411D-34
 Symmetry B1   KE= 4.187646704663D+00
 Symmetry B2   KE= 5.086756686063D+00
 Symmetry A1   SP= 6.920443084332D-15
 Symmetry A2   SP= 4.801673285531D-36
 Symmetry B1   SP=-3.321345850050D-15
 Symmetry B2   SP= 1.000000000000D+00
 Orbital energies and kinetic energies (alpha):
                                 1                 2
   1         (A1)--O         -19.639178         29.019680
   2         (A1)--O         -10.656585         15.880817
   3         (A1)--O          -1.493775          2.869406
   4         (A1)--O          -1.000642          1.787664
   5         (B2)--O          -0.890717          1.708202
   6         (A1)--O          -0.848505          2.362776
   7         (B1)--O          -0.792856          2.156832
   8         (B2)--O          -0.697978          2.080347
   9         (B1)--V          -0.396496          1.880551
  10         (A1)--V          -0.177723          1.178624
  11         (B2)--V          -0.112819          1.290081
  12         (A1)--V          -0.095416          1.489387
  13         (B1)--V           0.205601          1.893544
  14         (A1)--V           0.290446          2.815919
  15         (B2)--V           0.294201          1.916449
  16         (A1)--V           0.337983          2.155576
  17         (B2)--V           0.484501          2.364462
  18         (A1)--V           0.509234          2.519158
  19         (A1)--V           0.580988          2.275997
  20         (B1)--V           0.605883          3.270112
  21         (B2)--V           0.690201          2.800720
  22         (A1)--V           1.027513          2.538759
  23         (A2)--V           1.128466          2.623638
  24         (B1)--V           1.140627          2.774511
  25         (A1)--V           1.286885          2.743604
  26         (B2)--V           1.453220          3.334585
  27         (A2)--V           1.534127          3.029159
  28         (A1)--V           1.752683          3.404182
  29         (A1)--V           1.901537          4.437513
  30         (B1)--V           2.175537          3.780444
  31         (B2)--V           2.266873          3.978769
  32         (A1)--V           2.533243          4.976947
  33         (A1)--V           3.291406         10.099680
  34         (A1)--V           3.700375          9.992900
 Orbital energies and kinetic energies (beta):
                                 1                 2
   1         (A1)--O         -19.616123         29.047799
   2         (A1)--O         -10.658296         15.879231
   3         (A1)--O          -1.447364          2.755594
   4         (A1)--O          -0.976290          1.787487
   5         (B2)--O          -0.827951          1.298208
   6         (A1)--O          -0.823110          2.378676
   7         (B1)--O          -0.772221          2.030815
   8         (B2)--V          -0.520733          2.168146
   9         (B1)--V          -0.392092          1.962311
  10         (A1)--V          -0.166074          1.115440
  11         (B2)--V          -0.094815          1.303840
  12         (A1)--V          -0.088749          1.486587
  13         (B1)--V           0.201096          1.875414
  14         (A1)--V           0.300906          2.959259
  15         (B2)--V           0.315850          1.925510
  16         (A1)--V           0.351714          2.046540
  17         (B2)--V           0.508725          2.382522
  18         (A1)--V           0.522614          2.541352
  19         (A1)--V           0.592355          2.312368
  20         (B1)--V           0.622175          3.331839
  21         (B2)--V           0.745688          3.057660
  22         (A1)--V           1.044279          2.526059
  23         (B1)--V           1.141159          2.775978
  24         (A2)--V           1.141796          2.632415
  25         (A1)--V           1.323464          2.760044
  26         (B2)--V           1.489225          3.363163
  27         (A2)--V           1.571311          3.020382
  28         (A1)--V           1.771216          3.407505
  29         (A1)--V           1.908876          4.461464
  30         (B1)--V           2.178713          3.779636
  31         (B2)--V           2.294777          3.974568
  32         (A1)--V           2.549476          4.967931
  33         (A1)--V           3.325224         10.124967
  34         (A1)--V           3.699348          9.990287
 Total kinetic energy from orbitals= 1.130435338415D+02
                          Isotropic Fermi Contact Couplings
        Atom                 a.u.       MegaHertz       Gauss      10(-4) cm-1
     1  C(13)             -0.07416     -83.36749     -29.74759     -27.80840
     2  H(1)               0.07436     332.37596     118.60001     110.86869
     3  H(1)               0.07436     332.37596     118.60001     110.86869
     4  O(17)              0.09914     -60.09728     -21.44420     -20.04630
 --------------------------------------------------------
       Center         ----  Spin Dipole Couplings  ----
                      3XX-RR        3YY-RR        3ZZ-RR
 --------------------------------------------------------
     1   Atom       -0.161183      0.088561      0.072623
     2   Atom       -0.020355      0.007542      0.012813
     3   Atom       -0.020355      0.007542      0.012813
     4   Atom       -1.391234      3.124826     -1.733592
 --------------------------------------------------------
                        XY            XZ            YZ
 --------------------------------------------------------
     1   Atom        0.000000      0.000000     -0.000000
     2   Atom       -0.000000      0.000000     -0.024413
     3   Atom        0.000000      0.000000      0.024413
     4   Atom       -0.000000      0.000000      0.000000
 --------------------------------------------------------


 ---------------------------------------------------------------------------------
              Anisotropic Spin Dipole Couplings in Principal Axis System
 ---------------------------------------------------------------------------------

       Atom             a.u.   MegaHertz   Gauss  10(-4) cm-1        Axes

              Baa    -0.1612   -21.629    -7.718    -7.215  1.0000  0.0000  0.0000
     1 C(13)  Bbb     0.0726     9.745     3.477     3.251  0.0000  0.0000  1.0000
              Bcc     0.0886    11.884     4.241     3.964  0.0000  1.0000 -0.0000
 
              Baa    -0.0204   -10.861    -3.875    -3.623  1.0000  0.0000  0.0000
     2 H(1)   Bbb    -0.0144    -7.671    -2.737    -2.559 -0.0000  0.7441  0.6681
              Bcc     0.0347    18.532     6.613     6.181  0.0000 -0.6681  0.7441
 
              Baa    -0.0204   -10.861    -3.875    -3.623  1.0000 -0.0000  0.0000
     3 H(1)   Bbb    -0.0144    -7.671    -2.737    -2.559  0.0000  0.7441 -0.6681
              Bcc     0.0347    18.532     6.613     6.181  0.0000  0.6681  0.7441
 
              Baa    -1.7336   125.441    44.761    41.843  0.0000  0.0000  1.0000
     4 O(17)  Bbb    -1.3912   100.669    35.921    33.579  1.0000  0.0000  0.0000
              Bcc     3.1248  -226.110   -80.682   -75.422 -0.0000  1.0000 -0.0000
 

 ---------------------------------------------------------------------------------


 Test job not archived.
 1\1\GINC-WIN10\SP\UB3LYP\6-31G(d)\C1H2O1(1+,2)\FLY\12-Dec-2022\0\\# b3
 lyp/6-31g(d) pop=full gfinput iop(3/33=1)\\Title Card Required\\1,2\C,
 0,0.,0.,-0.528959\H,0,0.,0.937882,-1.12368\H,0,0.,-0.937882,-1.12368\O
 ,0,0.,0.,0.677639\\Version=ES64L-G16RevC.02\State=2-B2\HF=-114.1058571
 \S2=0.758284\S2-1=0.\S2A=0.750049\RMSD=4.208e-09\Dipole=0.,0.,-1.25479
 45\Quadrupole=-1.5548698,0.3442754,1.2105944,0.,0.,0.\PG=C02V [C2(C1O1
 ),SGV(H2)]\\@


 LORD, MAN... WERE YE BUT WHYLES WHERE I AM, 
 THE GENTILES YE WAD NE'ER ENVY 'EM.        
 IT'S TRUE, THEY NEEDNA STARVE OR SWEAT,     
 THRO' WINTER'S CAULD OR SIMMER'S HEAT...  
 THEY'VE NAE SAIR WARK TO CRAZE THEIR BANES, 
 AND FILL AULD AGE WITH GRIPS AN' GRANES...  
                                             
 BUT HUMAN BODIES ARE SIC FOOLS              
 FOR A' THEIR COLLEGES AND SCHOOLS,           
 THAT WHEN NAE REAL ILLS PERPLEX THEM,       
 THEY MAK ENOW THEMSELVES TO VEX THEM,       
 AN' AYE THE LESS THEY HAE TO STURT THEM,    
 IN LIKE PROPORTION LESS WILL HURT THEM....  
                                             
                (ROBERT BURNS 'THE TWA DOGS')
 Job cpu time:       0 days  0 hours  0 minutes  1.1 seconds.
 Elapsed time:       0 days  0 hours  0 minutes  1.0 seconds.
 File lengths (MBytes):  RWF=      6 Int=      0 D2E=      0 Chk=      1 Scr=      1
 Normal termination of Gaussian 16 at Mon Dec 12 17:18:27 2022.
