 Entering Gaussian System, Link 0=g16
 Input=CH2O.gjf
 Output=CH2O.log
 Initial command:
 /home/fly/software/gaussian/g16/l1.exe "/home/fly/software/gaussian/scr/Gau-121.inp" -scrdir="/home/fly/software/gaussian/scr/"
 Entering Link 1 = /home/fly/software/gaussian/g16/l1.exe PID=       123.
  
 Copyright (c) 1988-2021, Gaussian, Inc.  All Rights Reserved.
  
 This is part of the Gaussian(R) 16 program.  It is based on
 the Gaussian(R) 09 system (copyright 2009, Gaussian, Inc.),
 the Gaussian(R) 03 system (copyright 2003, Gaussian, Inc.),
 the Gaussian(R) 98 system (copyright 1998, Gaussian, Inc.),
 the Gaussian(R) 94 system (copyright 1995, Gaussian, Inc.),
 the Gaussian 92(TM) system (copyright 1992, Gaussian, Inc.),
 the Gaussian 90(TM) system (copyright 1990, Gaussian, Inc.),
 the Gaussian 88(TM) system (copyright 1988, Gaussian, Inc.),
 the Gaussian 86(TM) system (copyright 1986, Carnegie Mellon
 University), and the Gaussian 82(TM) system (copyright 1983,
 Carnegie Mellon University). Gaussian is a federally registered
 trademark of Gaussian, Inc.
  
 This software contains proprietary and confidential information,
 including trade secrets, belonging to Gaussian, Inc.
  
 This software is provided under written license and may be
 used, copied, transmitted, or stored only in accord with that
 written license.
  
 The following legend is applicable only to US Government
 contracts under FAR:
  
                    RESTRICTED RIGHTS LEGEND
  
 Use, reproduction and disclosure by the US Government is
 subject to restrictions as set forth in subparagraphs (a)
 and (c) of the Commercial Computer Software - Restricted
 Rights clause in FAR 52.227-19.
  
 Gaussian, Inc.
 340 Quinnipiac St., Bldg. 40, Wallingford CT 06492
  
  
 ---------------------------------------------------------------
 Warning -- This program may not be used in any manner that
 competes with the business of Gaussian, Inc. or will provide
 assistance to any competitor of Gaussian, Inc.  The licensee
 of this program is prohibited from giving any competitor of
 Gaussian, Inc. access to this program.  By using this program,
 the user acknowledges that Gaussian, Inc. is engaged in the
 business of creating and licensing software in the field of
 computational chemistry and represents and warrants to the
 licensee that it is not a competitor of Gaussian, Inc. and that
 it will not use this program in any manner prohibited above.
 ---------------------------------------------------------------
  

 Cite this work as:
 Gaussian 16, Revision C.02,
 M. J. Frisch, G. W. Trucks, H. B. Schlegel, G. E. Scuseria, 
 M. A. Robb, J. R. Cheeseman, G. Scalmani, V. Barone, 
 G. A. Petersson, H. Nakatsuji, X. Li, M. Caricato, A. V. Marenich, 
 J. Bloino, B. G. Janesko, R. Gomperts, B. Mennucci, H. P. Hratchian, 
 J. V. Ortiz, A. F. Izmaylov, J. L. Sonnenberg, D. Williams-Young, 
 F. Ding, F. Lipparini, F. Egidi, J. Goings, B. Peng, A. Petrone, 
 T. Henderson, D. Ranasinghe, V. G. Zakrzewski, J. Gao, N. Rega, 
 G. Zheng, W. Liang, M. Hada, M. Ehara, K. Toyota, R. Fukuda, 
 J. Hasegawa, M. Ishida, T. Nakajima, Y. Honda, O. Kitao, H. Nakai, 
 T. Vreven, K. Throssell, J. A. Montgomery, Jr., J. E. Peralta, 
 F. Ogliaro, M. J. Bearpark, J. J. Heyd, E. N. Brothers, K. N. Kudin, 
 V. N. Staroverov, T. A. Keith, R. Kobayashi, J. Normand, 
 K. Raghavachari, A. P. Rendell, J. C. Burant, S. S. Iyengar, 
 J. Tomasi, M. Cossi, J. M. Millam, M. Klene, C. Adamo, R. Cammi, 
 J. W. Ochterski, R. L. Martin, K. Morokuma, O. Farkas, 
 J. B. Foresman, and D. J. Fox, Gaussian, Inc., Wallingford CT, 2019.
 
 ******************************************
 Gaussian 16:  ES64L-G16RevC.02  7-Dec-2021
                 9-Oct-2022 
 ******************************************
 %chk=HCH0.chk
 ------------------------------------------------------
 # opt freq b3lyp/6-31g(d) pop=full gfinput iop(3/33=1)
 ------------------------------------------------------
 1/18=20,19=15,26=3,38=1/1,3;
 2/9=110,12=2,17=6,18=5,40=1/2;
 3/5=1,6=6,7=1,11=2,24=10,25=1,30=1,33=1,71=1,74=-5/1,2,3;
 4//1;
 5/5=2,38=5/2;
 6/7=3,28=1/1;
 7//1,2,3,16;
 1/18=20,19=15,26=3/3(2);
 2/9=110/2;
 99//99;
 2/9=110/2;
 3/5=1,6=6,7=1,11=2,25=1,30=1,33=1,71=1,74=-5/1,2,3;
 4/5=5,16=3,69=1/1;
 5/5=2,38=5/2;
 7//1,2,3,16;
 1/18=20,19=15,26=3/3(-5);
 2/9=110/2;
 6/7=3,19=2,28=1/1;
 99/9=1/99;
 -------------------
 Title Card Required
 -------------------
 Symbolic Z-matrix:
 Charge =  0 Multiplicity = 1
 C                     0.        0.       -0.56233 
 H                     0.       -0.92665  -1.09733 
 H                     0.        0.92665  -1.09733 
 O                     0.        0.        0.69608 
 

 GradGradGradGradGradGradGradGradGradGradGradGradGradGradGradGradGradGrad
 Berny optimization.
 Initialization pass.
                           ----------------------------
                           !    Initial Parameters    !
                           ! (Angstroms and Degrees)  !
 --------------------------                            --------------------------
 ! Name  Definition              Value          Derivative Info.                !
 --------------------------------------------------------------------------------
 ! R1    R(1,2)                  1.07           estimate D2E/DX2                !
 ! R2    R(1,3)                  1.07           estimate D2E/DX2                !
 ! R3    R(1,4)                  1.2584         estimate D2E/DX2                !
 ! A1    A(2,1,3)              120.0            estimate D2E/DX2                !
 ! A2    A(2,1,4)              120.0            estimate D2E/DX2                !
 ! A3    A(3,1,4)              120.0            estimate D2E/DX2                !
 ! D1    D(2,1,4,3)            180.0            estimate D2E/DX2                !
 --------------------------------------------------------------------------------
 Trust Radius=3.00D-01 FncErr=1.00D-07 GrdErr=1.00D-06 EigMax=2.50D+02 EigMin=1.00D-04
 Number of steps in this run=     20 maximum allowed number of steps=    100.
 GradGradGradGradGradGradGradGradGradGradGradGradGradGradGradGradGradGrad

                          Input orientation:                          
 ---------------------------------------------------------------------
 Center     Atomic      Atomic             Coordinates (Angstroms)
 Number     Number       Type             X           Y           Z
 ---------------------------------------------------------------------
      1          6           0        0.000000    0.000000   -0.562325
      2          1           0        0.000000   -0.926647   -1.097325
      3          1           0        0.000000    0.926647   -1.097325
      4          8           0        0.000000    0.000000    0.696075
 ---------------------------------------------------------------------
                    Distance matrix (angstroms):
                    1          2          3          4
     1  C    0.000000
     2  H    1.070000   0.000000
     3  H    1.070000   1.853294   0.000000
     4  O    1.258400   2.018653   2.018653   0.000000
 Stoichiometry    CH2O
 Framework group  C2V[C2(CO),SGV(H2)]
 Deg. of freedom     3
 Full point group                 C2V     NOp   4
 Largest Abelian subgroup         C2V     NOp   4
 Largest concise Abelian subgroup C2      NOp   2
                         Standard orientation:                         
 ---------------------------------------------------------------------
 Center     Atomic      Atomic             Coordinates (Angstroms)
 Number     Number       Type             X           Y           Z
 ---------------------------------------------------------------------
      1          6           0        0.000000    0.000000   -0.562325
      2          1           0        0.000000    0.926647   -1.097325
      3          1           0       -0.000000   -0.926647   -1.097325
      4          8           0       -0.000000    0.000000    0.696075
 ---------------------------------------------------------------------
 Rotational constants (GHZ):         291.9935404          36.5845887          32.5111827
 Standard basis: 6-31G(d) (6D, 7F)
                         Coordinates in L301:                         
 ---------------------------------------------------------------------
 Center     Atomic      Atomic             Coordinates (Angstroms)
 Number     Number       Type             X           Y           Z
 ---------------------------------------------------------------------
      1          6           0        0.000000   -0.000000   -0.562325
      2          1           0       -0.000000    0.926647   -1.097325
      3          1           0       -0.000000   -0.926647   -1.097325
      4          8           0       -0.000000    0.000000    0.696075
 ---------------------------------------------------------------------
 FixB: optimizing general contractions.
 Ernie: Thresh=  0.10000D-02 Tol=  0.10000D-05 Strict=F.
 IA=     1 ShT= 0 ShC= 0 NL=   1 NS=   0.
 IA=     1 L=0 SC=0 ISt=    0 NBk=    0 NP=    0 IndPr=    0.
 IA=     1 ShT= 1 ShC= 0 NL=   2 NS=   1.
 IA=     1 L=1 SC=0 ISt=    0 NBk=    0 NP=    0 IndPr=    0.
 IA=     1 ShT= 2 ShC= 2 NL=   1 NS=   1.
 IA=     1 L=2 SC=2 ISt=    0 NBk=    0 NP=    0 IndPr=    0.
 IA=     2 ShT= 0 ShC= 0 NL=   2 NS=   1.
 IA=     2 L=0 SC=0 ISt=    0 NBk=    0 NP=    0 IndPr=    0.
 IA=     3 ShT= 0 ShC= 0 NL=   2 NS=   1.
 IA=     3 L=0 SC=0 ISt=    0 NBk=    0 NP=    0 IndPr=    0.
 IA=     4 ShT= 0 ShC= 0 NL=   1 NS=   0.
 IA=     4 L=0 SC=0 ISt=    0 NBk=    0 NP=    0 IndPr=    0.
 IA=     4 ShT= 1 ShC= 0 NL=   2 NS=   1.
 IA=     4 L=1 SC=0 ISt=    0 NBk=    0 NP=    0 IndPr=    0.
 IA=     4 ShT= 2 ShC= 2 NL=   1 NS=   1.
 IA=     4 L=2 SC=2 ISt=    0 NBk=    0 NP=    0 IndPr=    0.
 AO basis set in the form of general basis input (Overlap normalization):
      1 0
 S   6 1.00       0.000000000000
      0.3047524880D+04  0.1834737132D-02
      0.4573695180D+03  0.1403732281D-01
      0.1039486850D+03  0.6884262226D-01
      0.2921015530D+02  0.2321844432D+00
      0.9286662960D+01  0.4679413484D+00
      0.3163926960D+01  0.3623119853D+00
 SP   3 1.00       0.000000000000
      0.7868272350D+01 -0.1193324198D+00  0.6899906659D-01
      0.1881288540D+01 -0.1608541517D+00  0.3164239610D+00
      0.5442492580D+00  0.1143456438D+01  0.7443082909D+00
 SP   1 1.00       0.000000000000
      0.1687144782D+00  0.1000000000D+01  0.1000000000D+01
 D   1 1.00       0.000000000000
      0.8000000000D+00  0.1000000000D+01
 ****
      2 0
 S   3 1.00       0.000000000000
      0.1873113696D+02  0.3349460434D-01
      0.2825394365D+01  0.2347269535D+00
      0.6401216923D+00  0.8137573261D+00
 S   1 1.00       0.000000000000
      0.1612777588D+00  0.1000000000D+01
 ****
      3 0
 S   3 1.00       0.000000000000
      0.1873113696D+02  0.3349460434D-01
      0.2825394365D+01  0.2347269535D+00
      0.6401216923D+00  0.8137573261D+00
 S   1 1.00       0.000000000000
      0.1612777588D+00  0.1000000000D+01
 ****
      4 0
 S   6 1.00       0.000000000000
      0.5484671660D+04  0.1831074430D-02
      0.8252349460D+03  0.1395017220D-01
      0.1880469580D+03  0.6844507810D-01
      0.5296450000D+02  0.2327143360D+00
      0.1689757040D+02  0.4701928980D+00
      0.5799635340D+01  0.3585208530D+00
 SP   3 1.00       0.000000000000
      0.1553961625D+02 -0.1107775495D+00  0.7087426823D-01
      0.3599933586D+01 -0.1480262627D+00  0.3397528391D+00
      0.1013761750D+01  0.1130767015D+01  0.7271585773D+00
 SP   1 1.00       0.000000000000
      0.2700058226D+00  0.1000000000D+01  0.1000000000D+01
 D   1 1.00       0.000000000000
      0.8000000000D+00  0.1000000000D+01
 ****

 LdAtmC:  AtmChg=     6.000000     1.000000     1.000000     8.000000
 AtZEff=     -3.6000000     -1.0000000     -1.0000000     -5.6000000
 NEqShl: 
              1            2            3            4
     1            1            1            1            1
     2            2            2            2            2
     3            3            3            3            3
     4            4            4            4            4
     5            5            7            5            7
     6            6            8            6            8
     7            7            5            7            5
     8            8            6            8            6
     9            9            9            9            9
    10           10           10           10           10
    11           11           11           11           11
    12           12           12           12           12
 NEqBas: 
              1            2            3            4
     1            1            1            1            1
     2            2            2            2            2
     3            3           -3           -3            3
     4            4           -4            4           -4
     5            5            5            5            5
     6            6            6            6            6
     7            7           -7           -7            7
     8            8           -8            8           -8
     9            9            9            9            9
    10           10           10           10           10
    11           11           11           11           11
    12           12           12           12           12
    13           13           13          -13          -13
    14           14          -14          -14           14
    15           15          -15           15          -15
    16           16           18           16           18
    17           17           19           17           19
    18           18           16           18           16
    19           19           17           19           17
    20           20           20           20           20
    21           21           21           21           21
    22           22          -22          -22           22
    23           23          -23           23          -23
    24           24           24           24           24
    25           25           25           25           25
    26           26          -26          -26           26
    27           27          -27           27          -27
    28           28           28           28           28
    29           29           29           29           29
    30           30           30           30           30
    31           31           31           31           31
    32           32           32          -32          -32
    33           33          -33          -33           33
    34           34          -34           34          -34
 There are    18 symmetry adapted cartesian basis functions of A1  symmetry.
   1         1   1   1   1
   2         2   2   2   2
   3         5   5   5   5
   4         6   6   6   6
   5         9   9   9   9
   6        10  10  10  10
   7        11  11  11  11
   8        12  12  12  12
   9        16  18  18  16
  10        17  19  19  17
  11        20  20  20  20
  12        21  21  21  21
  13        24  24  24  24
  14        25  25  25  25
  15        28  28  28  28
  16        29  29  29  29
  17        30  30  30  30
  18        31  31  31  31
 There are     2 symmetry adapted cartesian basis functions of A2  symmetry.
  19        13  13  13  13
  20        32  32  32  32
 There are     6 symmetry adapted cartesian basis functions of B1  symmetry.
  21         3   3   3   3
  22         7   7   7   7
  23        14  14  14  14
  24        22  22  22  22
  25        26  26  26  26
  26        33  33  33  33
 There are     8 symmetry adapted cartesian basis functions of B2  symmetry.
  27         4   4   4   4
  28         8   8   8   8
  29        15  15  15  15
  30        16 -18 -18  16
  31        17 -19 -19  17
  32        23  23  23  23
  33        27  27  27  27
  34        34  34  34  34
 Order= 1 2 4 3
 Reordered character table:
              1            2            3            4            5
     1            1            1            1            1            1
     2            2            1            1           -1           -1
     3            4            1           -1           -1            1
     4            3            1           -1            1           -1
 NEqShl: 
              1            2            3            4
     1            1            1            1            1
     2            2            2            2            2
     3            3            3            3            3
     4            4            4            4            4
     5            5            7            5            7
     6            6            8            6            8
     7            7            5            7            5
     8            8            6            8            6
     9            9            9            9            9
    10           10           10           10           10
    11           11           11           11           11
    12           12           12           12           12
 NEqBas: 
              1            2            3            4
     1            1            1            1            1
     2            2            2            2            2
     3            3           -3           -3            3
     4            4           -4            4           -4
     5            5            5            5            5
     6            6            6            6            6
     7            7           -7           -7            7
     8            8           -8            8           -8
     9            9            9            9            9
    10           10           10           10           10
    11           11           11           11           11
    12           12           12           12           12
    13           13           13          -13          -13
    14           14          -14          -14           14
    15           15          -15           15          -15
    16           16           18           16           18
    17           17           19           17           19
    18           18           16           18           16
    19           19           17           19           17
    20           20           20           20           20
    21           21           21           21           21
    22           22          -22          -22           22
    23           23          -23           23          -23
    24           24           24           24           24
    25           25           25           25           25
    26           26          -26          -26           26
    27           27          -27           27          -27
    28           28           28           28           28
    29           29           29           29           29
    30           30           30           30           30
    31           31           31           31           31
    32           32           32          -32          -32
    33           33          -33          -33           33
    34           34          -34           34          -34
 There are    18 symmetry adapted basis functions of A1  symmetry.
   1         1   1   1   1
   2         2   2   2   2
   3         5   5   5   5
   4         6   6   6   6
   5         9   9   9   9
   6        10  10  10  10
   7        11  11  11  11
   8        12  12  12  12
   9        16  18  18  16
  10        17  19  19  17
  11        20  20  20  20
  12        21  21  21  21
  13        24  24  24  24
  14        25  25  25  25
  15        28  28  28  28
  16        29  29  29  29
  17        30  30  30  30
  18        31  31  31  31
 There are     2 symmetry adapted basis functions of A2  symmetry.
  19        13  13  13  13
  20        32  32  32  32
 There are     6 symmetry adapted basis functions of B1  symmetry.
  21         3   3   3   3
  22         7   7   7   7
  23        14  14  14  14
  24        22  22  22  22
  25        26  26  26  26
  26        33  33  33  33
 There are     8 symmetry adapted basis functions of B2  symmetry.
  27         4   4   4   4
  28         8   8   8   8
  29        15  15  15  15
  30        16 -18 -18  16
  31        17 -19 -19  17
  32        23  23  23  23
  33        27  27  27  27
  34        34  34  34  34
 Order= 1 2 4 3
 Reordered character table:
              1            2            3            4            5
     1            1            1            1            1            1
     2            2            1            1           -1           -1
     3            4            1           -1           -1            1
     4            3            1           -1            1           -1
    34 basis functions,    64 primitive gaussians,    34 cartesian basis functions
     8 alpha electrons        8 beta electrons
       nuclear repulsion energy        30.5992945308 Hartrees.
 IS=     1 IAt=     1 ISR=     1 T=0 IP=      1 IndIP=      1 IndIPD=      0 C=  5.363452D-01  0.000000D+00                             NZ=T
 IS=     1 IAt=     1 ISR=     1 T=0 IP=      2 IndIP=      2 IndIPD=      1 C=  9.894521D-01  0.000000D+00                             NZ=T
 IS=     1 IAt=     1 ISR=     1 T=0 IP=      3 IndIP=      3 IndIPD=      2 C=  1.597283D+00  0.000000D+00                             NZ=T
 IS=     1 IAt=     1 ISR=     1 T=0 IP=      4 IndIP=      4 IndIPD=      3 C=  2.079187D+00  0.000000D+00                             NZ=T
 IS=     1 IAt=     1 ISR=     1 T=0 IP=      5 IndIP=      5 IndIPD=      4 C=  1.774174D+00  0.000000D+00                             NZ=T
 IS=     1 IAt=     1 ISR=     1 T=0 IP=      6 IndIP=      6 IndIPD=      5 C=  6.125797D-01  0.000000D+00                             NZ=T
 IS=     2 IAt=     1 ISR=     2 T=1 IP=      1 IndIP=      7 IndIPD=      0 C= -3.995564D-01  1.296082D+00                             NZ=T
 IS=     2 IAt=     1 ISR=     2 T=1 IP=      2 IndIP=      8 IndIPD=      1 C= -1.841552D-01  9.937536D-01                             NZ=T
 IS=     2 IAt=     1 ISR=     2 T=1 IP=      3 IndIP=      9 IndIPD=      2 C=  5.163903D-01  4.959527D-01                             NZ=T
 IS=     3 IAt=     1 ISR=     3 T=1 IP=      1 IndIP=     10 IndIPD=      0 C=  1.876179D-01  1.541276D-01                             NZ=T
 IS=     4 IAt=     1 ISR=     4 T=2 IP=      1 IndIP=     11 IndIPD=      1 C=  0.000000D+00  0.000000D+00  1.113825D+00  0.000000D+00 NZ=T
 IS=     5 IAt=     2 ISR=     1 T=0 IP=      1 IndIP=     12 IndIPD=      0 C=  2.149354D-01  0.000000D+00                             NZ=T
 IS=     5 IAt=     2 ISR=     1 T=0 IP=      2 IndIP=     13 IndIPD=      1 C=  3.645712D-01  0.000000D+00                             NZ=T
 IS=     5 IAt=     2 ISR=     1 T=0 IP=      3 IndIP=     14 IndIPD=      2 C=  4.150514D-01  0.000000D+00                             NZ=T
 IS=     6 IAt=     2 ISR=     2 T=0 IP=      1 IndIP=     15 IndIPD=      0 C=  1.813806D-01  0.000000D+00                             NZ=T
 IS=     7 IAt=     3 ISR=     1 T=0 IP=      1 IndIP=     16 IndIPD=      0 C=  2.149354D-01  0.000000D+00                             NZ=T
 IS=     7 IAt=     3 ISR=     1 T=0 IP=      2 IndIP=     17 IndIPD=      1 C=  3.645712D-01  0.000000D+00                             NZ=T
 IS=     7 IAt=     3 ISR=     1 T=0 IP=      3 IndIP=     18 IndIPD=      2 C=  4.150514D-01  0.000000D+00                             NZ=T
 IS=     8 IAt=     3 ISR=     2 T=0 IP=      1 IndIP=     19 IndIPD=      0 C=  1.813806D-01  0.000000D+00                             NZ=T
 IS=     9 IAt=     4 ISR=     1 T=0 IP=      1 IndIP=     20 IndIPD=      0 C=  8.317237D-01  0.000000D+00                             NZ=T
 IS=     9 IAt=     4 ISR=     1 T=0 IP=      2 IndIP=     21 IndIPD=      1 C=  1.530816D+00  0.000000D+00                             NZ=T
 IS=     9 IAt=     4 ISR=     1 T=0 IP=      3 IndIP=     22 IndIPD=      2 C=  2.477149D+00  0.000000D+00                             NZ=T
 IS=     9 IAt=     4 ISR=     1 T=0 IP=      4 IndIP=     23 IndIPD=      3 C=  3.256281D+00  0.000000D+00                             NZ=T
 IS=     9 IAt=     4 ISR=     1 T=0 IP=      5 IndIP=     24 IndIPD=      4 C=  2.792893D+00  0.000000D+00                             NZ=T
 IS=     9 IAt=     4 ISR=     1 T=0 IP=      6 IndIP=     25 IndIPD=      5 C=  9.549377D-01  0.000000D+00                             NZ=T
 IS=    10 IAt=     4 ISR=     2 T=1 IP=      1 IndIP=     26 IndIPD=      0 C= -6.179340D-01  3.116944D+00                             NZ=T
 IS=    10 IAt=     4 ISR=     2 T=1 IP=      2 IndIP=     27 IndIPD=      1 C= -2.757209D-01  2.401438D+00                             NZ=T
 IS=    10 IAt=     4 ISR=     2 T=1 IP=      3 IndIP=     28 IndIPD=      2 C=  8.142076D-01  1.054360D+00                             NZ=T
 IS=    11 IAt=     4 ISR=     3 T=1 IP=      1 IndIP=     29 IndIPD=      0 C=  2.669562D-01  2.774320D-01                             NZ=T
 IS=    12 IAt=     4 ISR=     4 T=2 IP=      1 IndIP=     30 IndIPD=      2 C=  0.000000D+00  0.000000D+00  1.113825D+00  0.000000D+00 NZ=T
 IExCor=  402 DFT=T Ex+Corr=B3LYP ExCW=0 ScaHFX=  0.200000
 ScaDFX=  0.800000  0.720000  1.000000  0.810000 ScalE2=  1.000000  1.000000
 IRadAn=      5 IRanWt=     -1 IRanGd=            0 ICorTp=0 IEmpDi=  4
 NAtoms=    4 NActive=    4 NUniq=    3 SFac= 1.78D+00 NAtFMM=   60 NAOKFM=F Big=F
 Integral buffers will be    131072 words long.
 Raffenetti 2 integral format.
 Two-electron integral symmetry is turned on.
 NPDir=0 NMtPBC=     1 NCelOv=     1 NCel=       1 NClECP=     1 NCelD=      1
         NCelK=      1 NCelE2=     1 NClLst=     1 CellRange=     0.0.
 One-electron integrals computed using PRISM.
 Entering OneElI...
 Calculate overlap and kinetic energy integrals
    NBasis =  34  MinDer = 0  MaxDer = 0
 Requested accuracy = 0.1000D-12
 Symmetry will be used
 PrmmSu-InSpLW:  IPartL=    0 NPrtUS=    1 NPrtUL=    1 DoSpLW=F IThBeg=    0 IThEnd=    0 NThAct=    1.
 PrSmSu:  IncTry=   512 NBBP=             78 NTPThr=   100 NPartT=    1 Incr=           1 LDynOK=F GPUOK=F.
 PrsmSu:  NPrtUS=   1 ThrOK=F IAlg=2 LenDen=           0 ISkipM=0 DoSpLW=F IThBeg=    0 IThEnd=    0.
 Prism:   IPart=     0 DynPar=F LinDyn=F Incr=           1.
 PRISM was handed   104843486 working-precision words and    78 shell-pairs
 IPart=  0 NShTot=          58 NBatch=          25 AvBLen=         2.3
 PrSmSu:  NxtVal=              2.
 *** Overlap *** 
                1             2             3             4             5 
      1  0.100000D+01
      2  0.219059D+00  0.100000D+01
      3  0.000000D+00  0.000000D+00  0.100000D+01
      4  0.000000D+00  0.000000D+00  0.000000D+00  0.100000D+01
      5  0.000000D+00  0.000000D+00  0.000000D+00  0.000000D+00  0.100000D+01
      6  0.184261D+00  0.812273D+00  0.000000D+00  0.000000D+00  0.000000D+00
      7  0.000000D+00  0.000000D+00  0.569754D+00  0.000000D+00  0.000000D+00
      8  0.000000D+00  0.000000D+00  0.000000D+00  0.569754D+00  0.000000D+00
      9  0.000000D+00  0.000000D+00  0.000000D+00  0.000000D+00  0.569754D+00
     10  0.791027D-01  0.710235D+00  0.000000D+00  0.000000D+00  0.000000D+00
     11  0.791027D-01  0.710235D+00  0.000000D+00  0.000000D+00  0.000000D+00
     12  0.791027D-01  0.710235D+00  0.000000D+00  0.000000D+00  0.000000D+00
     13  0.000000D+00  0.000000D+00  0.000000D+00  0.000000D+00  0.000000D+00
     14  0.000000D+00  0.000000D+00  0.000000D+00  0.000000D+00  0.000000D+00
     15  0.000000D+00  0.000000D+00  0.000000D+00  0.000000D+00  0.000000D+00
     16  0.357242D-01  0.286456D+00  0.000000D+00  0.330864D+00 -0.191024D+00
     17  0.944446D-01  0.485190D+00  0.000000D+00  0.230408D+00 -0.133026D+00
     18  0.357242D-01  0.286456D+00  0.000000D+00 -0.330864D+00 -0.191024D+00
     19  0.944446D-01  0.485190D+00  0.000000D+00 -0.230408D+00 -0.133026D+00
     20  0.117070D-05  0.171540D-01  0.000000D+00  0.000000D+00  0.369501D-01
     21  0.586120D-02  0.150117D+00  0.000000D+00  0.000000D+00  0.244073D+00
     22  0.000000D+00  0.000000D+00  0.767354D-01  0.000000D+00  0.000000D+00
     23  0.000000D+00  0.000000D+00  0.000000D+00  0.767354D-01  0.000000D+00
     24 -0.144931D-01 -0.183532D+00  0.000000D+00  0.000000D+00 -0.258289D+00
     25  0.600661D-01  0.347835D+00  0.000000D+00  0.000000D+00  0.323401D+00
     26  0.000000D+00  0.000000D+00  0.261720D+00  0.000000D+00  0.000000D+00
     27  0.000000D+00  0.000000D+00  0.000000D+00  0.261720D+00  0.000000D+00
     28 -0.140121D+00 -0.558637D+00  0.000000D+00  0.000000D+00 -0.292317D+00
     29  0.192194D-02  0.120288D+00  0.000000D+00  0.000000D+00  0.174215D+00
     30  0.192194D-02  0.120288D+00  0.000000D+00  0.000000D+00  0.174215D+00
     31  0.801191D-01  0.387613D+00  0.000000D+00  0.000000D+00  0.445940D+00
     32  0.000000D+00  0.000000D+00  0.000000D+00  0.000000D+00  0.000000D+00
     33  0.000000D+00  0.000000D+00 -0.228814D+00  0.000000D+00  0.000000D+00
     34  0.000000D+00  0.000000D+00  0.000000D+00 -0.228814D+00  0.000000D+00
                6             7             8             9            10 
      6  0.100000D+01
      7  0.000000D+00  0.100000D+01
      8  0.000000D+00  0.000000D+00  0.100000D+01
      9  0.000000D+00  0.000000D+00  0.000000D+00  0.100000D+01
     10  0.629936D+00  0.000000D+00  0.000000D+00  0.000000D+00  0.100000D+01
     11  0.629936D+00  0.000000D+00  0.000000D+00  0.000000D+00  0.333333D+00
     12  0.629936D+00  0.000000D+00  0.000000D+00  0.000000D+00  0.333333D+00
     13  0.000000D+00  0.000000D+00  0.000000D+00  0.000000D+00  0.000000D+00
     14  0.000000D+00  0.000000D+00  0.000000D+00  0.000000D+00  0.000000D+00
     15  0.000000D+00  0.000000D+00  0.000000D+00  0.000000D+00  0.000000D+00
     16  0.385046D+00  0.000000D+00  0.447156D+00 -0.258166D+00  0.124390D+00
     17  0.713549D+00  0.000000D+00  0.501665D+00 -0.289637D+00  0.358639D+00
     18  0.385046D+00  0.000000D+00 -0.447156D+00 -0.258166D+00  0.124390D+00
     19  0.713549D+00  0.000000D+00 -0.501665D+00 -0.289637D+00  0.358639D+00
     20  0.469716D-01  0.000000D+00  0.000000D+00  0.899337D-01  0.589867D-03
     21  0.272090D+00  0.000000D+00  0.000000D+00  0.451634D+00  0.449170D-01
     22  0.000000D+00  0.146881D+00  0.000000D+00  0.000000D+00  0.000000D+00
     23  0.000000D+00  0.000000D+00  0.146881D+00  0.000000D+00  0.000000D+00
     24 -0.143470D+00  0.000000D+00  0.000000D+00 -0.963451D-01 -0.637190D-01
     25  0.533516D+00  0.000000D+00  0.000000D+00  0.641441D+00  0.223202D+00
     26  0.000000D+00  0.519102D+00  0.000000D+00  0.000000D+00  0.000000D+00
     27  0.000000D+00  0.000000D+00  0.519102D+00  0.000000D+00  0.000000D+00
     28 -0.507045D+00  0.000000D+00  0.000000D+00 -0.905129D-01 -0.412416D+00
     29  0.286489D+00  0.000000D+00  0.000000D+00  0.462195D+00  0.104141D+00
     30  0.286489D+00  0.000000D+00  0.000000D+00  0.462195D+00  0.347135D-01
     31  0.381699D+00  0.000000D+00  0.000000D+00  0.420851D+00  0.191759D+00
     32  0.000000D+00  0.000000D+00  0.000000D+00  0.000000D+00  0.000000D+00
     33  0.000000D+00 -0.168830D+00  0.000000D+00  0.000000D+00  0.000000D+00
     34  0.000000D+00  0.000000D+00 -0.168830D+00  0.000000D+00  0.000000D+00
               11            12            13            14            15 
     11  0.100000D+01
     12  0.333333D+00  0.100000D+01
     13  0.000000D+00  0.000000D+00  0.100000D+01
     14  0.000000D+00  0.000000D+00  0.000000D+00  0.100000D+01
     15  0.000000D+00  0.000000D+00  0.000000D+00  0.000000D+00  0.100000D+01
     16  0.384823D+00  0.211201D+00  0.000000D+00  0.000000D+00 -0.260433D+00
     17  0.418153D+00  0.378477D+00  0.000000D+00  0.000000D+00 -0.595134D-01
     18  0.384823D+00  0.211201D+00  0.000000D+00  0.000000D+00  0.260433D+00
     19  0.418153D+00  0.378477D+00  0.000000D+00  0.000000D+00  0.595134D-01
     20  0.589867D-03  0.488350D-01  0.000000D+00  0.000000D+00  0.000000D+00
     21  0.449170D-01  0.314920D+00  0.000000D+00  0.000000D+00  0.000000D+00
     22  0.000000D+00  0.000000D+00  0.000000D+00  0.151259D+00  0.000000D+00
     23  0.000000D+00  0.000000D+00  0.000000D+00  0.000000D+00  0.151259D+00
     24 -0.637190D-01 -0.352338D+00  0.000000D+00  0.000000D+00  0.000000D+00
     25  0.223202D+00  0.395200D+00  0.000000D+00  0.000000D+00  0.000000D+00
     26  0.000000D+00  0.000000D+00  0.000000D+00  0.241090D+00  0.000000D+00
     27  0.000000D+00  0.000000D+00  0.000000D+00  0.000000D+00  0.241090D+00
     28 -0.412416D+00 -0.451835D+00  0.000000D+00  0.000000D+00  0.000000D+00
     29  0.347135D-01  0.191759D+00  0.000000D+00  0.000000D+00  0.000000D+00
     30  0.104141D+00  0.191759D+00  0.000000D+00  0.000000D+00  0.000000D+00
     31  0.191759D+00  0.500526D+00  0.000000D+00  0.000000D+00  0.000000D+00
     32  0.000000D+00  0.000000D+00  0.104141D+00  0.000000D+00  0.000000D+00
     33  0.000000D+00  0.000000D+00  0.000000D+00 -0.366994D+00  0.000000D+00
     34  0.000000D+00  0.000000D+00  0.000000D+00  0.000000D+00 -0.366994D+00
               16            17            18            19            20 
     16  0.100000D+01
     17  0.658292D+00  0.100000D+01
     18  0.135033D-01  0.131698D+00  0.100000D+01
     19  0.131698D+00  0.371919D+00  0.658292D+00  0.100000D+01
     20  0.439717D-04  0.115890D-01  0.439717D-04  0.115890D-01  0.100000D+01
     21  0.290618D-02  0.802134D-01  0.290618D-02  0.802134D-01  0.233690D+00
     22  0.000000D+00  0.000000D+00  0.000000D+00  0.000000D+00  0.000000D+00
     23  0.264280D-02  0.292587D-01 -0.264280D-02 -0.292587D-01  0.000000D+00
     24 -0.511478D-02 -0.566263D-01 -0.511478D-02 -0.566263D-01  0.000000D+00
     25  0.476547D-01  0.219033D+00  0.476547D-01  0.219033D+00  0.167280D+00
     26  0.000000D+00  0.000000D+00  0.000000D+00  0.000000D+00  0.000000D+00
     27  0.620870D-01  0.149057D+00 -0.620870D-01 -0.149057D+00  0.000000D+00
     28 -0.120161D+00 -0.288479D+00 -0.120161D+00 -0.288479D+00  0.000000D+00
     29  0.293155D-02  0.880514D-01  0.293155D-02  0.880514D-01  0.335315D-01
     30  0.810854D-02  0.102663D+00  0.810854D-02  0.102663D+00  0.335315D-01
     31  0.223226D-01  0.142781D+00  0.223226D-01  0.142781D+00  0.335315D-01
     32  0.000000D+00  0.000000D+00  0.000000D+00  0.000000D+00  0.000000D+00
     33  0.000000D+00  0.000000D+00  0.000000D+00  0.000000D+00  0.000000D+00
     34 -0.173540D-01 -0.489797D-01  0.173540D-01  0.489797D-01  0.000000D+00
               21            22            23            24            25 
     21  0.100000D+01
     22  0.000000D+00  0.100000D+01
     23  0.000000D+00  0.000000D+00  0.100000D+01
     24  0.000000D+00  0.000000D+00  0.000000D+00  0.100000D+01
     25  0.763641D+00  0.000000D+00  0.000000D+00  0.000000D+00  0.100000D+01
     26  0.000000D+00  0.501521D+00  0.000000D+00  0.000000D+00  0.000000D+00
     27  0.000000D+00  0.000000D+00  0.501521D+00  0.000000D+00  0.000000D+00
     28  0.000000D+00  0.000000D+00  0.000000D+00  0.501521D+00  0.000000D+00
     29  0.547066D+00  0.000000D+00  0.000000D+00  0.000000D+00  0.699015D+00
     30  0.547066D+00  0.000000D+00  0.000000D+00  0.000000D+00  0.699015D+00
     31  0.547066D+00  0.000000D+00  0.000000D+00  0.000000D+00  0.699015D+00
     32  0.000000D+00  0.000000D+00  0.000000D+00  0.000000D+00  0.000000D+00
     33  0.000000D+00  0.000000D+00  0.000000D+00  0.000000D+00  0.000000D+00
     34  0.000000D+00  0.000000D+00  0.000000D+00  0.000000D+00  0.000000D+00
               26            27            28            29            30 
     26  0.100000D+01
     27  0.000000D+00  0.100000D+01
     28  0.000000D+00  0.000000D+00  0.100000D+01
     29  0.000000D+00  0.000000D+00  0.000000D+00  0.100000D+01
     30  0.000000D+00  0.000000D+00  0.000000D+00  0.333333D+00  0.100000D+01
     31  0.000000D+00  0.000000D+00  0.000000D+00  0.333333D+00  0.333333D+00
     32  0.000000D+00  0.000000D+00  0.000000D+00  0.000000D+00  0.000000D+00
     33  0.000000D+00  0.000000D+00  0.000000D+00  0.000000D+00  0.000000D+00
     34  0.000000D+00  0.000000D+00  0.000000D+00  0.000000D+00  0.000000D+00
               31            32            33            34 
     31  0.100000D+01
     32  0.000000D+00  0.100000D+01
     33  0.000000D+00  0.000000D+00  0.100000D+01
     34  0.000000D+00  0.000000D+00  0.000000D+00  0.100000D+01
 *** Kinetic Energy *** 
                1             2             3             4             5 
      1  0.162076D+02
      2 -0.124757D+01  0.932246D+00
      3  0.000000D+00  0.000000D+00  0.217833D+01
      4  0.000000D+00  0.000000D+00  0.000000D+00  0.217833D+01
      5  0.000000D+00  0.000000D+00  0.000000D+00  0.000000D+00  0.217833D+01
      6  0.899505D-01  0.306718D+00  0.000000D+00  0.000000D+00  0.000000D+00
      7  0.000000D+00  0.000000D+00  0.376673D+00  0.000000D+00  0.000000D+00
      8  0.000000D+00  0.000000D+00  0.000000D+00  0.376673D+00  0.000000D+00
      9  0.000000D+00  0.000000D+00  0.000000D+00  0.000000D+00  0.376673D+00
     10 -0.524817D+00  0.520042D+00  0.000000D+00  0.000000D+00  0.000000D+00
     11 -0.524817D+00  0.520042D+00  0.000000D+00  0.000000D+00  0.000000D+00
     12 -0.524817D+00  0.520042D+00  0.000000D+00  0.000000D+00  0.000000D+00
     13  0.000000D+00  0.000000D+00  0.000000D+00  0.000000D+00  0.000000D+00
     14  0.000000D+00  0.000000D+00  0.000000D+00  0.000000D+00  0.000000D+00
     15  0.000000D+00  0.000000D+00  0.000000D+00  0.000000D+00  0.000000D+00
     16 -0.349069D-01  0.521630D-01  0.000000D+00  0.223644D+00 -0.129121D+00
     17  0.253899D-01  0.118822D+00  0.000000D+00  0.115991D+00 -0.669672D-01
     18 -0.349069D-01  0.521630D-01  0.000000D+00 -0.223644D+00 -0.129121D+00
     19  0.253899D-01  0.118822D+00  0.000000D+00 -0.115991D+00 -0.669672D-01
     20 -0.493301D-04 -0.239832D-01  0.000000D+00  0.000000D+00 -0.177688D-01
     21 -0.296197D-01 -0.340454D-01  0.000000D+00  0.000000D+00  0.594327D-01
     22  0.000000D+00  0.000000D+00  0.122608D-01  0.000000D+00  0.000000D+00
     23  0.000000D+00  0.000000D+00  0.000000D+00  0.122608D-01  0.000000D+00
     24  0.520248D-01 -0.786203D-01  0.000000D+00  0.000000D+00 -0.266749D+00
     25  0.176138D-02  0.633042D-01  0.000000D+00  0.000000D+00  0.173283D+00
     26  0.000000D+00  0.000000D+00  0.140234D+00  0.000000D+00  0.000000D+00
     27  0.000000D+00  0.000000D+00  0.000000D+00  0.140234D+00  0.000000D+00
     28 -0.755094D-01 -0.297508D+00  0.000000D+00  0.000000D+00 -0.366288D+00
     29 -0.193647D-01 -0.694082D-01  0.000000D+00  0.000000D+00 -0.287697D-01
     30 -0.193647D-01 -0.694082D-01  0.000000D+00  0.000000D+00 -0.287697D-01
     31 -0.592668D-01  0.255775D+00  0.000000D+00  0.000000D+00  0.606737D+00
     32  0.000000D+00  0.000000D+00  0.000000D+00  0.000000D+00  0.000000D+00
     33  0.000000D+00  0.000000D+00 -0.222471D+00  0.000000D+00  0.000000D+00
     34  0.000000D+00  0.000000D+00  0.000000D+00 -0.222471D+00  0.000000D+00
                6             7             8             9            10 
      6  0.253072D+00
      7  0.000000D+00  0.421786D+00
      8  0.000000D+00  0.000000D+00  0.421786D+00
      9  0.000000D+00  0.000000D+00  0.000000D+00  0.421786D+00
     10  0.226288D+00  0.000000D+00  0.000000D+00  0.000000D+00  0.173333D+01
     11  0.226288D+00  0.000000D+00  0.000000D+00  0.000000D+00 -0.133333D+00
     12  0.226288D+00  0.000000D+00  0.000000D+00  0.000000D+00 -0.133333D+00
     13  0.000000D+00  0.000000D+00  0.000000D+00  0.000000D+00  0.000000D+00
     14  0.000000D+00  0.000000D+00  0.000000D+00  0.000000D+00  0.000000D+00
     15  0.000000D+00  0.000000D+00  0.000000D+00  0.000000D+00  0.000000D+00
     16  0.987263D-01  0.000000D+00  0.236992D+00 -0.136828D+00 -0.856269D-01
     17  0.136839D+00  0.000000D+00  0.178937D+00 -0.103309D+00  0.721704D-01
     18  0.987263D-01  0.000000D+00 -0.236992D+00 -0.136828D+00 -0.856269D-01
     19  0.136839D+00  0.000000D+00 -0.178937D+00 -0.103309D+00  0.721704D-01
     20  0.877388D-02  0.000000D+00  0.000000D+00  0.465425D-01 -0.106636D-01
     21  0.538516D-01  0.000000D+00  0.000000D+00  0.218752D+00 -0.879629D-01
     22  0.000000D+00  0.718709D-01  0.000000D+00  0.000000D+00  0.000000D+00
     23  0.000000D+00  0.000000D+00  0.718709D-01  0.000000D+00  0.000000D+00
     24 -0.702016D-01  0.000000D+00  0.000000D+00 -0.118522D+00  0.866200D-01
     25  0.101135D+00  0.000000D+00  0.000000D+00  0.254799D+00  0.188321D-02
     26  0.000000D+00  0.206202D+00  0.000000D+00  0.000000D+00  0.000000D+00
     27  0.000000D+00  0.000000D+00  0.206202D+00  0.000000D+00  0.000000D+00
     28 -0.201413D+00  0.000000D+00  0.000000D+00 -0.162551D+00 -0.169991D+00
     29  0.400115D-01  0.000000D+00  0.000000D+00  0.193347D+00 -0.794356D-02
     30  0.400115D-01  0.000000D+00  0.000000D+00  0.193347D+00 -0.767034D-01
     31  0.111966D+00  0.000000D+00  0.000000D+00  0.204904D+00 -0.468037D-01
     32  0.000000D+00  0.000000D+00  0.000000D+00  0.000000D+00  0.000000D+00
     33  0.000000D+00 -0.127593D+00  0.000000D+00  0.000000D+00  0.000000D+00
     34  0.000000D+00  0.000000D+00 -0.127593D+00  0.000000D+00  0.000000D+00
               11            12            13            14            15 
     11  0.173333D+01
     12 -0.133333D+00  0.173333D+01
     13  0.000000D+00  0.000000D+00  0.280000D+01
     14  0.000000D+00  0.000000D+00  0.000000D+00  0.280000D+01
     15  0.000000D+00  0.000000D+00  0.000000D+00  0.000000D+00  0.280000D+01
     16  0.278810D+00  0.358521D-01  0.000000D+00  0.000000D+00 -0.364437D+00
     17  0.119319D+00  0.878864D-01  0.000000D+00  0.000000D+00 -0.471482D-01
     18  0.278810D+00  0.358521D-01  0.000000D+00  0.000000D+00  0.364437D+00
     19  0.119319D+00  0.878864D-01  0.000000D+00  0.000000D+00  0.471482D-01
     20 -0.106636D-01 -0.553395D-01  0.000000D+00  0.000000D+00  0.000000D+00
     21 -0.879629D-01  0.174594D+00  0.000000D+00  0.000000D+00  0.000000D+00
     22  0.000000D+00  0.000000D+00  0.000000D+00  0.113129D+00  0.000000D+00
     23  0.000000D+00  0.000000D+00  0.000000D+00  0.000000D+00  0.113129D+00
     24  0.866200D-01 -0.549256D+00  0.000000D+00  0.000000D+00  0.000000D+00
     25  0.188321D-02  0.165659D+00  0.000000D+00  0.000000D+00  0.000000D+00
     26  0.000000D+00  0.000000D+00  0.000000D+00  0.229565D+00  0.000000D+00
     27  0.000000D+00  0.000000D+00  0.000000D+00  0.000000D+00  0.229565D+00
     28 -0.169991D+00 -0.335837D+00  0.000000D+00  0.000000D+00  0.000000D+00
     29 -0.767034D-01 -0.468037D-01  0.000000D+00  0.000000D+00  0.000000D+00
     30 -0.794356D-02 -0.468037D-01  0.000000D+00  0.000000D+00  0.000000D+00
     31 -0.468037D-01  0.767578D+00  0.000000D+00  0.000000D+00  0.000000D+00
     32  0.000000D+00  0.000000D+00  0.103140D+00  0.000000D+00  0.000000D+00
     33  0.000000D+00  0.000000D+00  0.000000D+00 -0.740375D+00  0.000000D+00
     34  0.000000D+00  0.000000D+00  0.000000D+00  0.000000D+00 -0.740375D+00
               16            17            18            19            20 
     16  0.139568D+01
     17  0.259735D+00  0.241917D+00
     18 -0.225471D-01 -0.378147D-02  0.139568D+01
     19 -0.378147D-02  0.306462D-01  0.259735D+00  0.241917D+00
     20 -0.367389D-03 -0.294074D-02 -0.367389D-03 -0.294074D-02  0.295401D+02
     21 -0.953096D-02 -0.112589D-01 -0.953096D-02 -0.112589D-01 -0.218540D+01
     22  0.000000D+00  0.000000D+00  0.000000D+00  0.000000D+00  0.000000D+00
     23 -0.694029D-02  0.372016D-02  0.694029D-02 -0.372016D-02  0.000000D+00
     24  0.134320D-01 -0.719987D-02  0.134320D-01 -0.719987D-02  0.000000D+00
     25 -0.244430D-01  0.135861D-02 -0.244430D-01  0.135861D-02  0.131283D+00
     26  0.000000D+00  0.000000D+00  0.000000D+00  0.000000D+00  0.000000D+00
     27 -0.829718D-02  0.310245D-01  0.829718D-02 -0.310245D-01  0.000000D+00
     28  0.160581D-01 -0.600437D-01  0.160581D-01 -0.600437D-01  0.000000D+00
     29 -0.938482D-02 -0.154760D-01 -0.938482D-02 -0.154760D-01 -0.465828D+00
     30 -0.159599D-01 -0.940882D-02 -0.159599D-01 -0.940882D-02 -0.465828D+00
     31 -0.340126D-01  0.724939D-02 -0.340126D-01  0.724939D-02 -0.465828D+00
     32  0.000000D+00  0.000000D+00  0.000000D+00  0.000000D+00  0.000000D+00
     33  0.000000D+00  0.000000D+00  0.000000D+00  0.000000D+00  0.000000D+00
     34  0.220406D-01 -0.203380D-01 -0.220406D-01  0.203380D-01  0.000000D+00
               21            22            23            24            25 
     21  0.171121D+01
     22  0.000000D+00  0.425188D+01
     23  0.000000D+00  0.000000D+00  0.425188D+01
     24  0.000000D+00  0.000000D+00  0.000000D+00  0.425188D+01
     25  0.480048D+00  0.000000D+00  0.000000D+00  0.000000D+00  0.405009D+00
     26  0.000000D+00  0.547243D+00  0.000000D+00  0.000000D+00  0.000000D+00
     27  0.000000D+00  0.000000D+00  0.547243D+00  0.000000D+00  0.000000D+00
     28  0.000000D+00  0.000000D+00  0.000000D+00  0.547243D+00  0.000000D+00
     29  0.249764D+00  0.000000D+00  0.000000D+00  0.000000D+00  0.328083D+00
     30  0.249764D+00  0.000000D+00  0.000000D+00  0.000000D+00  0.328083D+00
     31  0.249764D+00  0.000000D+00  0.000000D+00  0.000000D+00  0.328083D+00
     32  0.000000D+00  0.000000D+00  0.000000D+00  0.000000D+00  0.000000D+00
     33  0.000000D+00  0.000000D+00  0.000000D+00  0.000000D+00  0.000000D+00
     34  0.000000D+00  0.000000D+00  0.000000D+00  0.000000D+00  0.000000D+00
               26            27            28            29            30 
     26  0.675015D+00
     27  0.000000D+00  0.675015D+00
     28  0.000000D+00  0.000000D+00  0.675015D+00
     29  0.000000D+00  0.000000D+00  0.000000D+00  0.173333D+01
     30  0.000000D+00  0.000000D+00  0.000000D+00 -0.133333D+00  0.173333D+01
     31  0.000000D+00  0.000000D+00  0.000000D+00 -0.133333D+00 -0.133333D+00
     32  0.000000D+00  0.000000D+00  0.000000D+00  0.000000D+00  0.000000D+00
     33  0.000000D+00  0.000000D+00  0.000000D+00  0.000000D+00  0.000000D+00
     34  0.000000D+00  0.000000D+00  0.000000D+00  0.000000D+00  0.000000D+00
               31            32            33            34 
     31  0.173333D+01
     32  0.000000D+00  0.280000D+01
     33  0.000000D+00  0.000000D+00  0.280000D+01
     34  0.000000D+00  0.000000D+00  0.000000D+00  0.280000D+01
 Entering OneElI...
 Calculate potential energy integrals
    NBasis =  34  MinDer = 0  MaxDer = 0
 Requested accuracy = 0.1000D-12
 Symmetry will be used
 PrmmSu-InSpLW:  IPartL=    0 NPrtUS=    1 NPrtUL=    1 DoSpLW=F IThBeg=    0 IThEnd=    0 NThAct=    1.
 PrSmSu:  IncTry=   512 NBBP=            312 NTPThr=   100 NPartT=    1 Incr=           3 LDynOK=F GPUOK=F.
 PrsmSu:  NPrtUS=   1 ThrOK=F IAlg=2 LenDen=           0 ISkipM=0 DoSpLW=F IThBeg=    0 IThEnd=    0.
 Prism:   IPart=     0 DynPar=F LinDyn=F Incr=           3.
 PRISM was handed   104843776 working-precision words and    78 shell-pairs
 IPart=  0 NShTot=         232 NBatch=          58 AvBLen=         4.0
 PrSmSu:  NxtVal=              4.
 ***** Potential Energy ***** 
                1             2             3             4             5 
      1  0.385060D+02
      2  0.336648D+01  0.100690D+02
      3  0.000000D+00  0.000000D+00  0.103208D+02
      4  0.000000D+00  0.000000D+00  0.000000D+00  0.104858D+02
      5  0.110961D+00  0.801095D+00  0.000000D+00  0.000000D+00  0.109542D+02
      6  0.405502D+01  0.764433D+01  0.000000D+00  0.000000D+00  0.791091D+00
      7  0.000000D+00  0.000000D+00  0.456533D+01  0.000000D+00  0.000000D+00
      8  0.000000D+00  0.000000D+00  0.000000D+00  0.470292D+01  0.000000D+00
      9  0.186408D-01  0.570143D+00  0.000000D+00  0.000000D+00  0.516817D+01
     10  0.116139D+01  0.642881D+01  0.000000D+00  0.000000D+00  0.314544D+00
     11  0.116604D+01  0.657050D+01  0.000000D+00  0.000000D+00  0.249540D+00
     12  0.117816D+01  0.696187D+01  0.000000D+00  0.000000D+00  0.132469D+01
     13  0.000000D+00  0.000000D+00  0.000000D+00  0.000000D+00  0.000000D+00
     14  0.000000D+00  0.000000D+00  0.544807D+00  0.000000D+00  0.000000D+00
     15  0.000000D+00  0.000000D+00  0.000000D+00  0.432216D+00  0.000000D+00
     16  0.732360D+00  0.240940D+01  0.000000D+00  0.268437D+01 -0.147142D+01
     17  0.205547D+01  0.431738D+01  0.000000D+00  0.183105D+01 -0.698467D+00
     18  0.732360D+00  0.240940D+01  0.000000D+00 -0.268437D+01 -0.147142D+01
     19  0.205547D+01  0.431738D+01  0.000000D+00 -0.183105D+01 -0.698467D+00
     20  0.168483D-04  0.567182D+00  0.000000D+00  0.000000D+00  0.125057D+01
     21  0.104572D+00  0.183056D+01  0.000000D+00  0.000000D+00  0.306595D+01
     22  0.000000D+00  0.000000D+00  0.820774D+00  0.000000D+00  0.000000D+00
     23  0.000000D+00  0.000000D+00  0.000000D+00  0.822288D+00  0.000000D+00
     24 -0.273245D+00 -0.219408D+01  0.000000D+00  0.000000D+00 -0.318559D+01
     25  0.130643D+01  0.361968D+01  0.000000D+00  0.000000D+00  0.361687D+01
     26  0.000000D+00  0.000000D+00  0.226484D+01  0.000000D+00  0.000000D+00
     27  0.000000D+00  0.000000D+00  0.000000D+00  0.229177D+01  0.000000D+00
     28 -0.310398D+01 -0.565017D+01  0.000000D+00  0.000000D+00 -0.328285D+01
     29  0.257930D-01  0.116757D+01  0.000000D+00  0.000000D+00  0.172818D+01
     30  0.258579D-01  0.117098D+01  0.000000D+00  0.000000D+00  0.173142D+01
     31  0.169311D+01  0.431885D+01  0.000000D+00  0.000000D+00  0.511187D+01
     32  0.000000D+00  0.000000D+00  0.000000D+00  0.000000D+00  0.000000D+00
     33  0.000000D+00  0.000000D+00 -0.224298D+01  0.000000D+00  0.000000D+00
     34  0.000000D+00  0.000000D+00  0.000000D+00 -0.225293D+01  0.000000D+00
                6             7             8             9            10 
      6  0.801961D+01
      7  0.000000D+00  0.587152D+01
      8  0.000000D+00  0.000000D+00  0.608361D+01
      9  0.106683D+01  0.000000D+00  0.000000D+00  0.706310D+01
     10  0.526962D+01  0.000000D+00  0.000000D+00  0.233834D+00  0.844573D+01
     11  0.541818D+01  0.000000D+00  0.000000D+00  0.172559D+00  0.285051D+01
     12  0.586909D+01  0.000000D+00  0.000000D+00  0.112570D+01  0.296161D+01
     13  0.000000D+00  0.000000D+00  0.000000D+00  0.000000D+00  0.000000D+00
     14  0.000000D+00  0.405012D+00  0.000000D+00  0.000000D+00  0.000000D+00
     15  0.000000D+00  0.000000D+00  0.298880D+00  0.000000D+00  0.000000D+00
     16  0.278396D+01  0.000000D+00  0.292901D+01 -0.162075D+01  0.100127D+01
     17  0.505376D+01  0.000000D+00  0.280853D+01 -0.114277D+01  0.290348D+01
     18  0.278396D+01  0.000000D+00 -0.292901D+01 -0.162075D+01  0.100127D+01
     19  0.505376D+01  0.000000D+00 -0.280853D+01 -0.114277D+01  0.290348D+01
     20  0.161395D+01  0.000000D+00  0.000000D+00  0.311385D+01  0.112826D-01
     21  0.328467D+01  0.000000D+00  0.000000D+00  0.548034D+01  0.462614D+00
     22  0.000000D+00  0.149110D+01  0.000000D+00  0.000000D+00  0.000000D+00
     23  0.000000D+00  0.000000D+00  0.149305D+01  0.000000D+00  0.000000D+00
     24 -0.177061D+01  0.000000D+00  0.000000D+00 -0.138238D+01 -0.651906D+00
     25  0.500420D+01  0.000000D+00  0.000000D+00  0.601296D+01  0.199846D+01
     26  0.000000D+00  0.353897D+01  0.000000D+00  0.000000D+00  0.000000D+00
     27  0.000000D+00  0.000000D+00  0.357499D+01  0.000000D+00  0.000000D+00
     28 -0.476039D+01  0.000000D+00  0.000000D+00 -0.130084D+01 -0.366297D+01
     29  0.256075D+01  0.000000D+00  0.000000D+00  0.410726D+01  0.919680D+00
     30  0.256629D+01  0.000000D+00  0.000000D+00  0.411328D+01  0.307471D+00
     31  0.402912D+01  0.000000D+00  0.000000D+00  0.419318D+01  0.189977D+01
     32  0.000000D+00  0.000000D+00  0.000000D+00  0.000000D+00  0.000000D+00
     33  0.000000D+00 -0.155066D+01  0.000000D+00  0.000000D+00  0.000000D+00
     34  0.000000D+00  0.000000D+00 -0.155901D+01  0.000000D+00  0.000000D+00
               11            12            13            14            15 
     11  0.875304D+01
     12  0.302877D+01  0.968184D+01
     13  0.000000D+00  0.000000D+00  0.855154D+01
     14  0.000000D+00  0.000000D+00  0.000000D+00  0.888482D+01
     15  0.000000D+00  0.000000D+00  0.000000D+00  0.000000D+00  0.908631D+01
     16  0.307524D+01  0.165549D+01  0.000000D+00  0.000000D+00 -0.197210D+01
     17  0.344472D+01  0.321680D+01  0.000000D+00  0.000000D+00 -0.348661D+00
     18  0.307524D+01  0.165549D+01  0.000000D+00  0.000000D+00  0.197210D+01
     19  0.344472D+01  0.321680D+01  0.000000D+00  0.000000D+00  0.348661D+00
     20  0.112838D-01  0.162418D+01  0.000000D+00  0.000000D+00  0.000000D+00
     21  0.463693D+00  0.402290D+01  0.000000D+00  0.000000D+00  0.000000D+00
     22  0.000000D+00  0.000000D+00  0.000000D+00  0.166406D+01  0.000000D+00
     23  0.000000D+00  0.000000D+00  0.000000D+00  0.000000D+00  0.166643D+01
     24 -0.653914D+00 -0.442660D+01  0.000000D+00  0.000000D+00  0.000000D+00
     25  0.202279D+01  0.443874D+01  0.000000D+00  0.000000D+00  0.000000D+00
     26  0.000000D+00  0.000000D+00  0.000000D+00  0.220998D+01  0.000000D+00
     27  0.000000D+00  0.000000D+00  0.000000D+00  0.000000D+00  0.220906D+01
     28 -0.372361D+01 -0.472836D+01  0.000000D+00  0.000000D+00  0.000000D+00
     29  0.307471D+00  0.197439D+01  0.000000D+00  0.000000D+00  0.000000D+00
     30  0.925754D+00  0.197764D+01  0.000000D+00  0.000000D+00  0.000000D+00
     31  0.191053D+01  0.568666D+01  0.000000D+00  0.000000D+00  0.000000D+00
     32  0.000000D+00  0.000000D+00  0.922413D+00  0.000000D+00  0.000000D+00
     33  0.000000D+00  0.000000D+00  0.000000D+00 -0.361937D+01  0.000000D+00
     34  0.000000D+00  0.000000D+00  0.000000D+00  0.000000D+00 -0.362917D+01
               16            17            18            19            20 
     16  0.700088D+01
     17  0.424604D+01  0.567521D+01
     18  0.118549D+00  0.972182D+00  0.700088D+01
     19  0.972182D+00  0.251654D+01  0.424604D+01  0.567521D+01
     20  0.121412D-02  0.393914D+00  0.121412D-02  0.393914D+00  0.645286D+02
     21  0.310586D-01  0.947590D+00  0.310586D-01  0.947590D+00  0.563598D+01
     22  0.000000D+00  0.000000D+00  0.000000D+00  0.000000D+00  0.000000D+00
     23  0.248565D-01  0.292178D+00 -0.248565D-01 -0.292178D+00  0.000000D+00
     24 -0.552946D-01 -0.669884D+00 -0.552946D-01 -0.669884D+00 -0.860209D-01
     25  0.401993D+00  0.194190D+01  0.401993D+00  0.194190D+01  0.582817D+01
     26  0.000000D+00  0.000000D+00  0.000000D+00  0.000000D+00  0.000000D+00
     27  0.453763D+00  0.995329D+00 -0.453763D+00 -0.995329D+00  0.000000D+00
     28 -0.996474D+00 -0.251005D+01 -0.996474D+00 -0.251005D+01 -0.118535D-01
     29  0.258834D-01  0.776814D+00  0.258834D-01  0.776814D+00  0.699069D+00
     30  0.674866D-01  0.889190D+00  0.674866D-01  0.889190D+00  0.699119D+00
     31  0.235611D+00  0.150899D+01  0.235611D+00  0.150899D+01  0.702194D+00
     32  0.000000D+00  0.000000D+00  0.000000D+00  0.000000D+00  0.000000D+00
     33  0.000000D+00  0.000000D+00  0.000000D+00  0.000000D+00  0.000000D+00
     34 -0.154007D+00 -0.436301D+00  0.154007D+00  0.436301D+00  0.000000D+00
               21            22            23            24            25 
     21  0.135786D+02
     22  0.000000D+00  0.146001D+02
     23  0.000000D+00  0.000000D+00  0.146040D+02
     24 -0.586891D+00  0.000000D+00  0.000000D+00  0.148465D+02
     25  0.935686D+01  0.000000D+00  0.000000D+00 -0.569933D+00  0.964694D+01
     26  0.000000D+00  0.521967D+01  0.000000D+00  0.000000D+00  0.000000D+00
     27  0.000000D+00  0.000000D+00  0.522373D+01  0.000000D+00  0.000000D+00
     28 -0.388534D+00  0.000000D+00  0.000000D+00  0.547035D+01 -0.102956D+01
     29  0.590248D+01  0.000000D+00  0.000000D+00 -0.231299D+00  0.632424D+01
     30  0.590600D+01  0.000000D+00  0.000000D+00 -0.232850D+00  0.633168D+01
     31  0.612247D+01  0.000000D+00  0.000000D+00 -0.863508D+00  0.677470D+01
     32  0.000000D+00  0.000000D+00  0.000000D+00  0.000000D+00  0.000000D+00
     33  0.000000D+00 -0.400622D+00  0.000000D+00  0.000000D+00  0.000000D+00
     34  0.000000D+00  0.000000D+00 -0.403308D+00  0.000000D+00  0.000000D+00
               26            27            28            29            30 
     26  0.703332D+01
     27  0.000000D+00  0.705425D+01
     28  0.000000D+00  0.000000D+00  0.798432D+01
     29  0.000000D+00  0.000000D+00 -0.308785D+00  0.885966D+01
     30  0.000000D+00  0.000000D+00 -0.312992D+00  0.295534D+01  0.887274D+01
     31  0.000000D+00  0.000000D+00 -0.134511D+01  0.306211D+01  0.306563D+01
     32  0.000000D+00  0.000000D+00  0.000000D+00  0.000000D+00  0.000000D+00
     33 -0.534832D+00  0.000000D+00  0.000000D+00  0.000000D+00  0.000000D+00
     34  0.000000D+00 -0.542118D+00  0.000000D+00  0.000000D+00  0.000000D+00
               31            32            33            34 
     31  0.977873D+01
     32  0.000000D+00  0.886601D+01
     33  0.000000D+00  0.000000D+00  0.918632D+01
     34  0.000000D+00  0.000000D+00  0.000000D+00  0.919689D+01
 ****** Core Hamiltonian ****** 
                1             2             3             4             5 
      1 -0.222984D+02
      2 -0.461405D+01 -0.913679D+01
      3  0.000000D+00  0.000000D+00 -0.814244D+01
      4  0.000000D+00  0.000000D+00  0.000000D+00 -0.830742D+01
      5 -0.110961D+00 -0.801095D+00  0.000000D+00  0.000000D+00 -0.877588D+01
      6 -0.396507D+01 -0.733761D+01  0.000000D+00  0.000000D+00 -0.791091D+00
      7  0.000000D+00  0.000000D+00 -0.418866D+01  0.000000D+00  0.000000D+00
      8  0.000000D+00  0.000000D+00  0.000000D+00 -0.432625D+01  0.000000D+00
      9 -0.186408D-01 -0.570143D+00  0.000000D+00  0.000000D+00 -0.479149D+01
     10 -0.168621D+01 -0.590877D+01  0.000000D+00  0.000000D+00 -0.314544D+00
     11 -0.169085D+01 -0.605045D+01  0.000000D+00  0.000000D+00 -0.249540D+00
     12 -0.170297D+01 -0.644183D+01  0.000000D+00  0.000000D+00 -0.132469D+01
     13  0.000000D+00  0.000000D+00  0.000000D+00  0.000000D+00  0.000000D+00
     14  0.000000D+00  0.000000D+00 -0.544807D+00  0.000000D+00  0.000000D+00
     15  0.000000D+00  0.000000D+00  0.000000D+00 -0.432216D+00  0.000000D+00
     16 -0.767267D+00 -0.235724D+01  0.000000D+00 -0.246073D+01  0.134230D+01
     17 -0.203008D+01 -0.419855D+01  0.000000D+00 -0.171505D+01  0.631500D+00
     18 -0.767267D+00 -0.235724D+01  0.000000D+00  0.246073D+01  0.134230D+01
     19 -0.203008D+01 -0.419855D+01  0.000000D+00  0.171505D+01  0.631500D+00
     20 -0.661784D-04 -0.591165D+00  0.000000D+00  0.000000D+00 -0.126833D+01
     21 -0.134192D+00 -0.186460D+01  0.000000D+00  0.000000D+00 -0.300652D+01
     22  0.000000D+00  0.000000D+00 -0.808513D+00  0.000000D+00  0.000000D+00
     23  0.000000D+00  0.000000D+00  0.000000D+00 -0.810027D+00  0.000000D+00
     24  0.325270D+00  0.211546D+01  0.000000D+00  0.000000D+00  0.291884D+01
     25 -0.130466D+01 -0.355637D+01  0.000000D+00  0.000000D+00 -0.344358D+01
     26  0.000000D+00  0.000000D+00 -0.212461D+01  0.000000D+00  0.000000D+00
     27  0.000000D+00  0.000000D+00  0.000000D+00 -0.215153D+01  0.000000D+00
     28  0.302848D+01  0.535267D+01  0.000000D+00  0.000000D+00  0.291656D+01
     29 -0.451577D-01 -0.123698D+01  0.000000D+00  0.000000D+00 -0.175695D+01
     30 -0.452227D-01 -0.124039D+01  0.000000D+00  0.000000D+00 -0.176019D+01
     31 -0.175237D+01 -0.406308D+01  0.000000D+00  0.000000D+00 -0.450513D+01
     32  0.000000D+00  0.000000D+00  0.000000D+00  0.000000D+00  0.000000D+00
     33  0.000000D+00  0.000000D+00  0.202051D+01  0.000000D+00  0.000000D+00
     34  0.000000D+00  0.000000D+00  0.000000D+00  0.203046D+01  0.000000D+00
                6             7             8             9            10 
      6 -0.776654D+01
      7  0.000000D+00 -0.544974D+01
      8  0.000000D+00  0.000000D+00 -0.566182D+01
      9 -0.106683D+01  0.000000D+00  0.000000D+00 -0.664131D+01
     10 -0.504334D+01  0.000000D+00  0.000000D+00 -0.233834D+00 -0.671240D+01
     11 -0.519189D+01  0.000000D+00  0.000000D+00 -0.172559D+00 -0.298385D+01
     12 -0.564280D+01  0.000000D+00  0.000000D+00 -0.112570D+01 -0.309494D+01
     13  0.000000D+00  0.000000D+00  0.000000D+00  0.000000D+00  0.000000D+00
     14  0.000000D+00 -0.405012D+00  0.000000D+00  0.000000D+00  0.000000D+00
     15  0.000000D+00  0.000000D+00 -0.298880D+00  0.000000D+00  0.000000D+00
     16 -0.268523D+01  0.000000D+00 -0.269202D+01  0.148393D+01 -0.108690D+01
     17 -0.491692D+01  0.000000D+00 -0.262959D+01  0.103946D+01 -0.283131D+01
     18 -0.268523D+01  0.000000D+00  0.269202D+01  0.148393D+01 -0.108690D+01
     19 -0.491692D+01  0.000000D+00  0.262959D+01  0.103946D+01 -0.283131D+01
     20 -0.160518D+01  0.000000D+00  0.000000D+00 -0.306730D+01 -0.219462D-01
     21 -0.323082D+01  0.000000D+00  0.000000D+00 -0.526159D+01 -0.550577D+00
     22  0.000000D+00 -0.141923D+01  0.000000D+00  0.000000D+00  0.000000D+00
     23  0.000000D+00  0.000000D+00 -0.142118D+01  0.000000D+00  0.000000D+00
     24  0.170040D+01  0.000000D+00  0.000000D+00  0.126386D+01  0.738526D+00
     25 -0.490307D+01  0.000000D+00  0.000000D+00 -0.575816D+01 -0.199658D+01
     26  0.000000D+00 -0.333276D+01  0.000000D+00  0.000000D+00  0.000000D+00
     27  0.000000D+00  0.000000D+00 -0.336878D+01  0.000000D+00  0.000000D+00
     28  0.455898D+01  0.000000D+00  0.000000D+00  0.113829D+01  0.349298D+01
     29 -0.252073D+01  0.000000D+00  0.000000D+00 -0.391391D+01 -0.927623D+00
     30 -0.252628D+01  0.000000D+00  0.000000D+00 -0.391993D+01 -0.384174D+00
     31 -0.391715D+01  0.000000D+00  0.000000D+00 -0.398827D+01 -0.194657D+01
     32  0.000000D+00  0.000000D+00  0.000000D+00  0.000000D+00  0.000000D+00
     33  0.000000D+00  0.142307D+01  0.000000D+00  0.000000D+00  0.000000D+00
     34  0.000000D+00  0.000000D+00  0.143142D+01  0.000000D+00  0.000000D+00
               11            12            13            14            15 
     11 -0.701970D+01
     12 -0.316210D+01 -0.794851D+01
     13  0.000000D+00  0.000000D+00 -0.575154D+01
     14  0.000000D+00  0.000000D+00  0.000000D+00 -0.608482D+01
     15  0.000000D+00  0.000000D+00  0.000000D+00  0.000000D+00 -0.628631D+01
     16 -0.279643D+01 -0.161964D+01  0.000000D+00  0.000000D+00  0.160767D+01
     17 -0.332540D+01 -0.312892D+01  0.000000D+00  0.000000D+00  0.301512D+00
     18 -0.279643D+01 -0.161964D+01  0.000000D+00  0.000000D+00 -0.160767D+01
     19 -0.332540D+01 -0.312892D+01  0.000000D+00  0.000000D+00 -0.301512D+00
     20 -0.219475D-01 -0.167952D+01  0.000000D+00  0.000000D+00  0.000000D+00
     21 -0.551656D+00 -0.384831D+01  0.000000D+00  0.000000D+00  0.000000D+00
     22  0.000000D+00  0.000000D+00  0.000000D+00 -0.155093D+01  0.000000D+00
     23  0.000000D+00  0.000000D+00  0.000000D+00  0.000000D+00 -0.155330D+01
     24  0.740534D+00  0.387735D+01  0.000000D+00  0.000000D+00  0.000000D+00
     25 -0.202090D+01 -0.427309D+01  0.000000D+00  0.000000D+00  0.000000D+00
     26  0.000000D+00  0.000000D+00  0.000000D+00 -0.198042D+01  0.000000D+00
     27  0.000000D+00  0.000000D+00  0.000000D+00  0.000000D+00 -0.197950D+01
     28  0.355362D+01  0.439252D+01  0.000000D+00  0.000000D+00  0.000000D+00
     29 -0.384174D+00 -0.202120D+01  0.000000D+00  0.000000D+00  0.000000D+00
     30 -0.933698D+00 -0.202445D+01  0.000000D+00  0.000000D+00  0.000000D+00
     31 -0.195733D+01 -0.491908D+01  0.000000D+00  0.000000D+00  0.000000D+00
     32  0.000000D+00  0.000000D+00 -0.819273D+00  0.000000D+00  0.000000D+00
     33  0.000000D+00  0.000000D+00  0.000000D+00  0.287900D+01  0.000000D+00
     34  0.000000D+00  0.000000D+00  0.000000D+00  0.000000D+00  0.288879D+01
               16            17            18            19            20 
     16 -0.560520D+01
     17 -0.398630D+01 -0.543330D+01
     18 -0.141096D+00 -0.975964D+00 -0.560520D+01
     19 -0.975964D+00 -0.248589D+01 -0.398630D+01 -0.543330D+01
     20 -0.158151D-02 -0.396855D+00 -0.158151D-02 -0.396855D+00 -0.349884D+02
     21 -0.405895D-01 -0.958849D+00 -0.405895D-01 -0.958849D+00 -0.782139D+01
     22  0.000000D+00  0.000000D+00  0.000000D+00  0.000000D+00  0.000000D+00
     23 -0.317968D-01 -0.288458D+00  0.317968D-01  0.288458D+00  0.000000D+00
     24  0.687266D-01  0.662684D+00  0.687266D-01  0.662684D+00  0.860209D-01
     25 -0.426436D+00 -0.194055D+01 -0.426436D+00 -0.194055D+01 -0.569689D+01
     26  0.000000D+00  0.000000D+00  0.000000D+00  0.000000D+00  0.000000D+00
     27 -0.462060D+00 -0.964304D+00  0.462060D+00  0.964304D+00  0.000000D+00
     28  0.101253D+01  0.245001D+01  0.101253D+01  0.245001D+01  0.118535D-01
     29 -0.352683D-01 -0.792290D+00 -0.352683D-01 -0.792290D+00 -0.116490D+01
     30 -0.834465D-01 -0.898599D+00 -0.834465D-01 -0.898599D+00 -0.116495D+01
     31 -0.269624D+00 -0.150174D+01 -0.269624D+00 -0.150174D+01 -0.116802D+01
     32  0.000000D+00  0.000000D+00  0.000000D+00  0.000000D+00  0.000000D+00
     33  0.000000D+00  0.000000D+00  0.000000D+00  0.000000D+00  0.000000D+00
     34  0.176047D+00  0.415963D+00 -0.176047D+00 -0.415963D+00  0.000000D+00
               21            22            23            24            25 
     21 -0.118673D+02
     22  0.000000D+00 -0.103482D+02
     23  0.000000D+00  0.000000D+00 -0.103522D+02
     24  0.586891D+00  0.000000D+00  0.000000D+00 -0.105946D+02
     25 -0.887681D+01  0.000000D+00  0.000000D+00  0.569933D+00 -0.924193D+01
     26  0.000000D+00 -0.467243D+01  0.000000D+00  0.000000D+00  0.000000D+00
     27  0.000000D+00  0.000000D+00 -0.467649D+01  0.000000D+00  0.000000D+00
     28  0.388534D+00  0.000000D+00  0.000000D+00 -0.492311D+01  0.102956D+01
     29 -0.565271D+01  0.000000D+00  0.000000D+00  0.231299D+00 -0.599616D+01
     30 -0.565623D+01  0.000000D+00  0.000000D+00  0.232850D+00 -0.600360D+01
     31 -0.587270D+01  0.000000D+00  0.000000D+00  0.863508D+00 -0.644662D+01
     32  0.000000D+00  0.000000D+00  0.000000D+00  0.000000D+00  0.000000D+00
     33  0.000000D+00  0.400622D+00  0.000000D+00  0.000000D+00  0.000000D+00
     34  0.000000D+00  0.000000D+00  0.403308D+00  0.000000D+00  0.000000D+00
               26            27            28            29            30 
     26 -0.635831D+01
     27  0.000000D+00 -0.637923D+01
     28  0.000000D+00  0.000000D+00 -0.730931D+01
     29  0.000000D+00  0.000000D+00  0.308785D+00 -0.712633D+01
     30  0.000000D+00  0.000000D+00  0.312992D+00 -0.308867D+01 -0.713941D+01
     31  0.000000D+00  0.000000D+00  0.134511D+01 -0.319544D+01 -0.319896D+01
     32  0.000000D+00  0.000000D+00  0.000000D+00  0.000000D+00  0.000000D+00
     33  0.534832D+00  0.000000D+00  0.000000D+00  0.000000D+00  0.000000D+00
     34  0.000000D+00  0.542118D+00  0.000000D+00  0.000000D+00  0.000000D+00
               31            32            33            34 
     31 -0.804539D+01
     32  0.000000D+00 -0.606601D+01
     33  0.000000D+00  0.000000D+00 -0.638632D+01
     34  0.000000D+00  0.000000D+00  0.000000D+00 -0.639689D+01
 SVDSVc IOpt=   1 NormSV=T IR=1
 SVDSVc V= 5.64D+00 3.60D+00 1.81D+00 1.06D+00 1.00D+00 9.19D-01 8.61D-01 8.17D-01 6.71D-01 6.10D-01
 SVDSVc V= 3.92D-01 3.31D-01 2.77D-01 1.97D-01 1.05D-01 4.68D-02 3.38D-02 9.98D-03
 SVDSVc IOpt=   1 NormSV=T IR=2
 SVDSVc V= 1.10D+00 8.96D-01
 SVDSVc IOpt=   1 NormSV=T IR=3
 SVDSVc V= 2.17D+00 1.27D+00 1.22D+00 6.05D-01 4.60D-01 2.71D-01
 SVDSVc IOpt=   1 NormSV=T IR=4
 SVDSVc V= 2.81D+00 1.69D+00 1.25D+00 6.40D-01 5.57D-01 3.84D-01 2.45D-01 3.74D-02
 TstOVc:  Largest diagonal error= 3.31D-14 IB=1 I=   18.
 TstOVc:  Largest same sym error= 1.63D-14 IB=1 I=   18 J=   15.
 TstOVc:  Largest diff sym error= 6.64D-16 IB=4 JB=1 I=   34 J=   17.
 Orthogonalized basis functions: 
                 1             2             3             4             5 
      1   0.312814D-01 -0.223354D-01 -0.476901D-01 -0.459587D+00  0.593022D+00
      2   0.150385D+00 -0.807545D-01 -0.884020D-01 -0.167372D+00  0.917663D-01
      3   0.000000D+00  0.000000D+00  0.000000D+00  0.000000D+00  0.000000D+00
      4   0.000000D+00  0.000000D+00  0.000000D+00  0.000000D+00  0.000000D+00
      5   0.295666D-01  0.150073D+00 -0.303278D+00 -0.582146D-01 -0.533850D-01
      6   0.165447D+00 -0.645612D-01  0.442898D-01 -0.320978D-01  0.150298D-02
      7   0.000000D+00  0.000000D+00  0.000000D+00  0.000000D+00  0.000000D+00
      8   0.000000D+00  0.000000D+00  0.000000D+00  0.000000D+00  0.000000D+00
      9   0.353696D-01  0.226933D+00 -0.142273D+00 -0.120045D+00 -0.126984D-01
     10   0.104988D+00 -0.670748D-01 -0.833463D-01 -0.281314D+00  0.985190D-01
     11   0.113915D+00 -0.896324D-01 -0.603263D-02 -0.844803D-01 -0.681128D-01
     12   0.129825D+00 -0.221316D-01 -0.819654D-01  0.177801D+00 -0.180994D-01
     13   0.000000D+00  0.000000D+00  0.000000D+00  0.000000D+00  0.000000D+00
     14   0.000000D+00  0.000000D+00  0.000000D+00  0.000000D+00  0.000000D+00
     15   0.000000D+00  0.000000D+00  0.000000D+00  0.000000D+00  0.000000D+00
     16   0.608790D-01 -0.102011D+00  0.140689D+00  0.125364D+00 -0.908596D-01
     17   0.106173D+00 -0.108532D+00  0.119725D+00  0.769662D-01 -0.511793D-01
     18   0.608790D-01 -0.102011D+00  0.140689D+00  0.125364D+00 -0.908596D-01
     19   0.106173D+00 -0.108532D+00  0.119725D+00  0.769662D-01 -0.511793D-01
     20   0.155160D-01  0.402587D-01  0.460527D-01  0.537258D+00  0.728981D+00
     21   0.843472D-01  0.178427D+00  0.132056D+00  0.189587D+00  0.746273D-01
     22   0.000000D+00  0.000000D+00  0.000000D+00  0.000000D+00  0.000000D+00
     23   0.000000D+00  0.000000D+00  0.000000D+00  0.000000D+00  0.000000D+00
     24  -0.390975D-01  0.116948D-01  0.379917D+00 -0.405383D+00  0.142298D+00
     25   0.122220D+00  0.182969D+00  0.132536D+00 -0.846042D-02 -0.888428D-02
     26   0.000000D+00  0.000000D+00  0.000000D+00  0.000000D+00  0.000000D+00
     27   0.000000D+00  0.000000D+00  0.000000D+00  0.000000D+00  0.000000D+00
     28  -0.923293D-01  0.708200D-01  0.367667D+00 -0.871799D-01  0.232780D-03
     29   0.724691D-01  0.150088D+00  0.118347D+00  0.618661D-02 -0.116754D+00
     30   0.733440D-01  0.148113D+00  0.127400D+00  0.499066D-01 -0.158208D+00
     31   0.101842D+00  0.136215D+00  0.177854D-01 -0.157190D+00  0.249459D-02
     32   0.000000D+00  0.000000D+00  0.000000D+00  0.000000D+00  0.000000D+00
     33   0.000000D+00  0.000000D+00  0.000000D+00  0.000000D+00  0.000000D+00
     34   0.000000D+00  0.000000D+00  0.000000D+00  0.000000D+00  0.000000D+00
                 6             7             8             9            10 
      1   0.635645D+00 -0.139688D+00 -0.705035D-01 -0.270920D-01  0.191992D-01
      2  -0.168387D+00  0.142423D+00  0.490791D-01  0.217176D+00  0.277055D+00
      3   0.000000D+00  0.000000D+00  0.000000D+00  0.000000D+00  0.000000D+00
      4   0.000000D+00  0.000000D+00  0.000000D+00  0.000000D+00  0.000000D+00
      5  -0.980699D-01 -0.323010D+00  0.352595D+00 -0.427232D+00 -0.455023D+00
      6  -0.234557D-01 -0.292646D-01 -0.118139D+00 -0.713983D-01 -0.188908D+00
      7   0.000000D+00  0.000000D+00  0.000000D+00  0.000000D+00  0.000000D+00
      8   0.000000D+00  0.000000D+00  0.000000D+00  0.000000D+00  0.000000D+00
      9  -0.141277D+00 -0.255826D+00 -0.114357D+00  0.973330D-01  0.240878D+00
     10  -0.487519D+00  0.289703D+00 -0.366965D+00  0.218425D-02 -0.288261D+00
     11  -0.204720D+00 -0.509198D+00  0.220521D+00  0.209084D+00  0.589534D+00
     12   0.195013D+00  0.532359D+00  0.227527D+00  0.226050D+00  0.257516D+00
     13   0.000000D+00  0.000000D+00  0.000000D+00  0.000000D+00  0.000000D+00
     14   0.000000D+00  0.000000D+00  0.000000D+00  0.000000D+00  0.000000D+00
     15   0.000000D+00  0.000000D+00  0.000000D+00  0.000000D+00  0.000000D+00
     16   0.106724D+00 -0.241327D+00  0.139298D+00 -0.135470D+00  0.116543D+00
     17   0.802640D-01 -0.651164D-01 -0.290975D-01 -0.220985D+00 -0.401401D+00
     18   0.106724D+00 -0.241327D+00  0.139298D+00 -0.135470D+00  0.116543D+00
     19   0.802640D-01 -0.651164D-01 -0.290975D-01 -0.220985D+00 -0.401401D+00
     20  -0.307900D+00 -0.111250D+00  0.277609D-01 -0.117945D-01 -0.133793D-01
     21   0.103062D+00  0.102564D+00 -0.616503D-02  0.203255D-01  0.184709D-01
     22   0.000000D+00  0.000000D+00  0.000000D+00  0.000000D+00  0.000000D+00
     23   0.000000D+00  0.000000D+00  0.000000D+00  0.000000D+00  0.000000D+00
     24  -0.366521D+00 -0.842655D-01  0.134144D+00 -0.778883D-02 -0.447846D-01
     25   0.145173D-01 -0.151947D-01 -0.614033D-01 -0.146552D-02 -0.156332D-01
     26   0.000000D+00  0.000000D+00  0.000000D+00  0.000000D+00  0.000000D+00
     27   0.000000D+00  0.000000D+00  0.000000D+00  0.000000D+00  0.000000D+00
     28   0.623798D-03  0.174132D+00  0.230269D+00 -0.497290D-02  0.255461D-01
     29   0.718450D-01  0.693708D-01 -0.490908D+00 -0.643517D+00  0.478427D+00
     30   0.163171D+00 -0.239419D+00 -0.215358D+00  0.765441D+00 -0.418489D+00
     31  -0.757878D-02  0.278142D+00  0.653427D+00 -0.121821D+00 -0.801824D-01
     32   0.000000D+00  0.000000D+00  0.000000D+00  0.000000D+00  0.000000D+00
     33   0.000000D+00  0.000000D+00  0.000000D+00  0.000000D+00  0.000000D+00
     34   0.000000D+00  0.000000D+00  0.000000D+00  0.000000D+00  0.000000D+00
                11            12            13            14            15 
      1   0.783351D-01  0.995701D-01  0.116740D-01 -0.870173D-01 -0.463546D-01
      2   0.317931D-01  0.874699D-02 -0.758152D-01 -0.404394D+00 -0.688417D+00
      3   0.000000D+00  0.000000D+00  0.000000D+00  0.000000D+00  0.000000D+00
      4   0.000000D+00  0.000000D+00  0.000000D+00  0.000000D+00  0.000000D+00
      5  -0.118303D+00  0.287445D-01  0.873727D-01 -0.851073D+00 -0.113585D+01
      6   0.393535D-01 -0.314033D+00 -0.131863D+00  0.492458D+00 -0.213684D+00
      7   0.000000D+00  0.000000D+00  0.000000D+00  0.000000D+00  0.000000D+00
      8   0.000000D+00  0.000000D+00  0.000000D+00  0.000000D+00  0.000000D+00
      9   0.241436D+00 -0.167824D+00  0.522465D+00  0.135672D+01 -0.430133D+00
     10   0.393157D+00  0.680121D+00  0.210238D+00 -0.233609D+00  0.142102D+00
     11   0.528168D-01 -0.485876D-01 -0.811298D+00 -0.296317D+00  0.179150D+00
     12  -0.298062D+00 -0.424065D+00  0.527840D+00 -0.196796D+00 -0.101360D+01
     13   0.000000D+00  0.000000D+00  0.000000D+00  0.000000D+00  0.000000D+00
     14   0.000000D+00  0.000000D+00  0.000000D+00  0.000000D+00  0.000000D+00
     15   0.000000D+00  0.000000D+00  0.000000D+00  0.000000D+00  0.000000D+00
     16   0.173077D+00  0.517941D+00  0.809099D+00 -0.242643D-01 -0.152276D-01
     17  -0.185680D-01 -0.307508D+00 -0.298882D+00  0.361018D+00 -0.108859D+00
     18   0.173077D+00  0.517941D+00  0.809099D+00 -0.242643D-01 -0.152276D-01
     19  -0.185680D-01 -0.307508D+00 -0.298882D+00  0.361018D+00 -0.108859D+00
     20   0.159282D+00 -0.237733D+00  0.121323D+00 -0.208986D+00  0.255638D+00
     21  -0.677746D+00  0.110239D+01 -0.637132D+00  0.311716D+00 -0.397757D+00
     22   0.000000D+00  0.000000D+00  0.000000D+00  0.000000D+00  0.000000D+00
     23   0.000000D+00  0.000000D+00  0.000000D+00  0.000000D+00  0.000000D+00
     24  -0.858722D+00 -0.311003D+00  0.472820D+00 -0.395725D-01 -0.218376D+00
     25   0.288150D+00 -0.161310D+00 -0.657795D-01  0.246441D+00 -0.482489D+00
     26   0.000000D+00  0.000000D+00  0.000000D+00  0.000000D+00  0.000000D+00
     27   0.000000D+00  0.000000D+00  0.000000D+00  0.000000D+00  0.000000D+00
     28   0.898803D+00  0.369332D-01 -0.358361D+00 -0.248496D+00 -0.128864D+01
     29  -0.279098D-01 -0.306006D+00  0.663468D-01 -0.822779D+00  0.521236D+00
     30   0.534728D-01 -0.144355D+00  0.249048D+00 -0.835436D+00  0.522602D+00
     31   0.220704D+00 -0.150737D-01  0.768817D-02  0.123732D+00  0.191763D+01
     32   0.000000D+00  0.000000D+00  0.000000D+00  0.000000D+00  0.000000D+00
     33   0.000000D+00  0.000000D+00  0.000000D+00  0.000000D+00  0.000000D+00
     34   0.000000D+00  0.000000D+00  0.000000D+00  0.000000D+00  0.000000D+00
                16            17            18            19            20 
      1  -0.383419D+00 -0.341464D+00  0.268659D-01  0.000000D+00  0.000000D+00
      2   0.351716D+01  0.516344D+00 -0.499023D-01  0.000000D+00  0.000000D+00
      3   0.000000D+00  0.000000D+00  0.000000D+00  0.000000D+00  0.000000D+00
      4   0.000000D+00  0.000000D+00  0.000000D+00  0.000000D+00  0.000000D+00
      5  -0.208228D+00  0.704999D-01 -0.591114D+00  0.000000D+00  0.000000D+00
      6  -0.937446D+00  0.358808D+01 -0.470684D+01  0.000000D+00  0.000000D+00
      7   0.000000D+00  0.000000D+00  0.000000D+00  0.000000D+00  0.000000D+00
      8   0.000000D+00  0.000000D+00  0.000000D+00  0.000000D+00  0.000000D+00
      9   0.387771D+00 -0.157146D+01 -0.219573D+01  0.000000D+00  0.000000D+00
     10  -0.133755D+01 -0.108673D+01  0.364680D+00  0.000000D+00  0.000000D+00
     11  -0.153623D+01 -0.897662D+00  0.184688D+00  0.000000D+00  0.000000D+00
     12  -0.163800D+01 -0.118358D+01 -0.298188D+00  0.000000D+00  0.000000D+00
     13   0.000000D+00  0.000000D+00  0.000000D+00  0.672935D+00  0.747077D+00
     14   0.000000D+00  0.000000D+00  0.000000D+00  0.000000D+00  0.000000D+00
     15   0.000000D+00  0.000000D+00  0.000000D+00  0.000000D+00  0.000000D+00
     16   0.117221D+00  0.192696D+00  0.133551D+00  0.000000D+00  0.000000D+00
     17   0.524237D+00 -0.188539D+01  0.409368D+00  0.000000D+00  0.000000D+00
     18   0.117221D+00  0.192696D+00  0.133551D+00  0.000000D+00  0.000000D+00
     19   0.524237D+00 -0.188539D+01  0.409368D+00  0.000000D+00  0.000000D+00
     20   0.478496D-01 -0.117314D+00 -0.406561D+00  0.000000D+00  0.000000D+00
     21   0.104059D+00 -0.241628D+00 -0.132851D+01  0.000000D+00  0.000000D+00
     22   0.000000D+00  0.000000D+00  0.000000D+00  0.000000D+00  0.000000D+00
     23   0.000000D+00  0.000000D+00  0.000000D+00  0.000000D+00  0.000000D+00
     24  -0.164620D+00 -0.661990D-01  0.212470D+00  0.000000D+00  0.000000D+00
     25  -0.392100D+00  0.160239D+01  0.766785D+01  0.000000D+00  0.000000D+00
     26   0.000000D+00  0.000000D+00  0.000000D+00  0.000000D+00  0.000000D+00
     27   0.000000D+00  0.000000D+00  0.000000D+00  0.000000D+00  0.000000D+00
     28  -0.107130D+00 -0.437973D+00 -0.255416D+01  0.000000D+00  0.000000D+00
     29   0.188313D+00 -0.500328D+00 -0.148850D+01  0.000000D+00  0.000000D+00
     30   0.183893D+00 -0.437164D+00 -0.148980D+01  0.000000D+00  0.000000D+00
     31   0.275282D+00 -0.840292D-01 -0.711357D+00  0.000000D+00  0.000000D+00
     32   0.000000D+00  0.000000D+00  0.000000D+00  0.672935D+00 -0.747077D+00
     33   0.000000D+00  0.000000D+00  0.000000D+00  0.000000D+00  0.000000D+00
     34   0.000000D+00  0.000000D+00  0.000000D+00  0.000000D+00  0.000000D+00
                21            22            23            24            25 
      1   0.000000D+00  0.000000D+00  0.000000D+00  0.000000D+00  0.000000D+00
      2   0.000000D+00  0.000000D+00  0.000000D+00  0.000000D+00  0.000000D+00
      3   0.303066D+00 -0.131954D+00 -0.448385D+00  0.178456D+00  0.100823D+01
      4   0.000000D+00  0.000000D+00  0.000000D+00  0.000000D+00  0.000000D+00
      5   0.000000D+00  0.000000D+00  0.000000D+00  0.000000D+00  0.000000D+00
      6   0.000000D+00  0.000000D+00  0.000000D+00  0.000000D+00  0.000000D+00
      7   0.360724D+00 -0.220239D+00 -0.272076D+00 -0.286041D+00 -0.564662D+00
      8   0.000000D+00  0.000000D+00  0.000000D+00  0.000000D+00  0.000000D+00
      9   0.000000D+00  0.000000D+00  0.000000D+00  0.000000D+00  0.000000D+00
     10   0.000000D+00  0.000000D+00  0.000000D+00  0.000000D+00  0.000000D+00
     11   0.000000D+00  0.000000D+00  0.000000D+00  0.000000D+00  0.000000D+00
     12   0.000000D+00  0.000000D+00  0.000000D+00  0.000000D+00  0.000000D+00
     13   0.000000D+00  0.000000D+00  0.000000D+00  0.000000D+00  0.000000D+00
     14   0.155458D+00  0.608231D+00  0.223762D+00 -0.613052D+00  0.521729D+00
     15   0.000000D+00  0.000000D+00  0.000000D+00  0.000000D+00  0.000000D+00
[...]
  34        4YZ         0.00000   0.00000   0.00000   0.00172
     Gross orbital populations:
                           1
   1 1   C  1S          1.99183
   2        2S          0.73251
   3        2PX         0.44873
   4        2PY         0.76047
   5        2PZ         0.74870
   6        3S          0.53327
   7        3PX         0.27971
   8        3PY         0.26358
   9        3PZ         0.10730
  10        4XX        -0.02779
  11        4YY         0.00677
  12        4ZZ         0.01915
  13        4XY         0.00000
  14        4XZ         0.01178
  15        4YZ         0.04354
  16 2   H  1S          0.53424
  17        2S          0.34453
  18 3   H  1S          0.53424
  19        2S          0.34453
  20 4   O  1S          1.99274
  21        2S          0.92241
  22        2PX         0.75095
  23        2PY         1.15944
  24        2PZ         0.94529
  25        3S          0.98633
  26        3PX         0.49726
  27        3PY         0.66814
  28        3PZ         0.39621
  29        4XX        -0.00456
  30        4YY        -0.01288
  31        4ZZ         0.00272
  32        4XY         0.00000
  33        4XZ         0.01158
  34        4YZ         0.00730
          Condensed to atoms (all electrons):
               1          2          3          4
     1  C    4.700079   0.331078   0.331078   0.557313
     2  H    0.331078   0.697653  -0.094959  -0.055002
     3  H    0.331078  -0.094959   0.697653  -0.055002
     4  O    0.557313  -0.055002  -0.055002   7.875600
 Mulliken charges:
               1
     1  C    0.080451
     2  H    0.121229
     3  H    0.121229
     4  O   -0.322910
 Sum of Mulliken charges =  -0.00000
 Mulliken charges with hydrogens summed into heavy atoms:
               1
     1  C    0.322910
     4  O   -0.322910
 APT charges:
               1
     1  C    0.684675
     2  H   -0.075202
     3  H   -0.075202
     4  O   -0.534271
 Sum of APT charges =  -0.00000
 APT charges with hydrogens summed into heavy atoms:
               1
     1  C    0.534271
     4  O   -0.534271
 Electronic spatial extent (au):  <R**2>=             60.3177
 Charge=             -0.0000 electrons
 Dipole moment (field-independent basis, Debye):
    X=             -0.0000    Y=              0.0000    Z=             -2.1867  Tot=              2.1867
 Quadrupole moment (field-independent basis, Debye-Ang):
   XX=            -11.4052   YY=            -11.5084   ZZ=            -11.9276
   XY=              0.0000   XZ=              0.0000   YZ=             -0.0000
 Traceless Quadrupole moment (field-independent basis, Debye-Ang):
   XX=              0.2085   YY=              0.1053   ZZ=             -0.3139
   XY=              0.0000   XZ=              0.0000   YZ=             -0.0000
 Octapole moment (field-independent basis, Debye-Ang**2):
  XXX=              0.0000  YYY=              0.0000  ZZZ=              1.2467  XYY=              0.0000
  XXY=             -0.0000  XXZ=              0.9142  XZZ=              0.0000  YZZ=              0.0000
  YYZ=              0.0672  XYZ=             -0.0000
 Hexadecapole moment (field-independent basis, Debye-Ang**3):
 XXXX=             -9.1922 YYYY=            -17.9945 ZZZZ=            -44.4066 XXXY=             -0.0000
 XXXZ=             -0.0000 YYYX=             -0.0000 YYYZ=             -0.0000 ZZZX=             -0.0000
 ZZZY=             -0.0000 XXYY=             -4.7350 XXZZ=             -8.9035 YYZZ=            -10.1698
 XXYZ=             -0.0000 YYXZ=             -0.0000 ZZXY=             -0.0000
 N-N= 3.122055875187D+01 E-N=-3.308425710887D+02  KE= 1.134840306235D+02
 Symmetry A1   KE= 1.031334607701D+02
 Symmetry A2   KE= 6.120544861228D-35
 Symmetry B1   KE= 3.635273552099D+00
 Symmetry B2   KE= 6.715296301267D+00
 Orbital energies and kinetic energies (alpha):
                                 1                 2
   1         (A1)--O         -19.169774         29.030702
   2         (A1)--O         -10.289112         15.881757
   3         (A1)--O          -1.060801          2.712967
   4         (A1)--O          -0.637538          1.591654
   5         (B2)--O          -0.495289          1.241072
   6         (A1)--O          -0.449542          2.349650
   7         (B1)--O          -0.399169          1.817637
   8         (B2)--O          -0.268501          2.116576
   9         (B1)--V          -0.042142          1.867307
  10         (A1)--V           0.101209          1.048028
  11         (B2)--V           0.181993          1.208030
  12         (A1)--V           0.218732          1.298129
  13         (B1)--V           0.506584          2.003011
  14         (A1)--V           0.623549          2.031169
  15         (B2)--V           0.626798          1.914596
  16         (A1)--V           0.693885          3.033566
  17         (B2)--V           0.813802          2.557188
  18         (A1)--V           0.837130          2.778779
  19         (A1)--V           0.890478          2.373244
  20         (B1)--V           0.960089          3.499222
  21         (B2)--V           1.059148          3.105184
  22         (A1)--V           1.377257          2.559386
  23         (A2)--V           1.505800          2.632866
  24         (B1)--V           1.510010          2.785037
  25         (A1)--V           1.681714          2.761691
  26         (B2)--V           1.849794          3.356589
  27         (A2)--V           1.931357          3.019931
  28         (A1)--V           2.126068          3.406336
  29         (A1)--V           2.278957          4.499817
  30         (B1)--V           2.540947          3.783778
  31         (B2)--V           2.656736          3.974380
  32         (A1)--V           2.910647          4.984430
  33         (A1)--V           3.682964         10.193313
  34         (A1)--V           4.055464         10.013964
 Total kinetic energy from orbitals= 1.134840306235D+02
  Exact polarizability:       6.763       0.000      14.129       0.000       0.000      18.366
 Approx polarizability:       8.961       0.000      16.851       0.000       0.000      30.950
 Calling FoFJK, ICntrl=    100127 FMM=F ISym2X=1 I1Cent= 0 IOpClX= 0 NMat=1 NMatS=1 NMatT=0.
 Full mass-weighted force constant matrix:
 Low frequencies ---    0.0013    0.0016    0.0020   18.4734   20.7041   31.3163
 Low frequencies --- 1198.7140 1279.6613 1563.0257
 Diagonal vibrational polarizability:
        0.0271542       0.7102539       1.0247051
 Harmonic frequencies (cm**-1), IR intensities (KM/Mole), Raman scattering
 activities (A**4/AMU), depolarization ratios for plane and unpolarized
 incident light, reduced masses (AMU), force constants (mDyne/A),
 and normal coordinates:
                      1                      2                      3
                     B1                     B2                     A1
 Frequencies --   1198.7140              1279.6613              1563.0257
 Red. masses --      1.3702                 1.3419                 1.1282
 Frc consts  --      1.1601                 1.2946                 1.6240
 IR Inten    --      1.4499                12.5839                 6.4833
  Atom  AN      X      Y      Z        X      Y      Z        X      Y      Z
     1   6    -0.17   0.00  -0.00    -0.00  -0.15  -0.00    -0.00  -0.00   0.02
     2   1     0.70  -0.00  -0.00     0.00   0.25   0.65     0.00   0.35   0.61
     3   1     0.70   0.00   0.00     0.00   0.25  -0.65     0.00  -0.35   0.61
     4   8     0.04  -0.00  -0.00     0.00   0.08   0.00     0.00   0.00  -0.09
                      4                      5                      6
                     A1                     A1                     B2
 Frequencies --   1849.2058              2915.8266              2966.8563
 Red. masses --      6.5171                 1.0447                 1.1221
 Frc consts  --     13.1303                 5.2330                 5.8192
 IR Inten    --     98.6399                55.9243               164.6705
  Atom  AN      X      Y      Z        X      Y      Z        X      Y      Z
     1   6     0.00  -0.00   0.55    -0.00   0.00   0.06     0.00  -0.10   0.00
     2   1    -0.00  -0.46  -0.26     0.00   0.61  -0.35    -0.00   0.60  -0.37
     3   1    -0.00   0.46  -0.26     0.00  -0.61  -0.35    -0.00   0.60   0.37
     4   8    -0.00   0.00  -0.38     0.00  -0.00   0.00    -0.00   0.00  -0.00

 -------------------
 - Thermochemistry -
 -------------------
 Temperature   298.150 Kelvin.  Pressure   1.00000 Atm.
 Atom     1 has atomic number  6 and mass  12.00000
 Atom     2 has atomic number  1 and mass   1.00783
 Atom     3 has atomic number  1 and mass   1.00783
 Atom     4 has atomic number  8 and mass  15.99491
 Molecular mass:    30.01056 amu.
 Principal axes and moments of inertia in atomic units:
                           1         2         3
     Eigenvalues --     6.33153  46.71765  53.04919
           X            0.00000   0.00000   1.00000
           Y            0.00000   1.00000  -0.00000
           Z            1.00000  -0.00000  -0.00000
 This molecule is an asymmetric top.
 Rotational symmetry number  2.
 Rotational temperatures (Kelvin)     13.67977     1.85399     1.63271
 Rotational constants (GHZ):         285.04010    38.63082    34.02015
 Zero-point vibrational energy      70419.9 (Joules/Mol)
                                   16.83076 (Kcal/Mol)
 Vibrational temperatures:   1724.68  1841.15  2248.85  2660.59  4195.22
          (Kelvin)           4268.64
 
 Zero-point correction=                           0.026822 (Hartree/Particle)
 Thermal correction to Energy=                    0.029688
 Thermal correction to Enthalpy=                  0.030632
 Thermal correction to Gibbs Free Energy=         0.005812
 Sum of electronic and zero-point Energies=           -114.473651
 Sum of electronic and thermal Energies=              -114.470785
 Sum of electronic and thermal Enthalpies=            -114.469841
 Sum of electronic and thermal Free Energies=         -114.494660
 
                     E (Thermal)             CV                S
                      KCal/Mol        Cal/Mol-Kelvin    Cal/Mol-Kelvin
 Total                   18.629              6.407             52.238
 Electronic               0.000              0.000              0.000
 Translational            0.889              2.981             36.130
 Rotational               0.889              2.981             16.025
 Vibrational             16.852              0.446              0.083
                       Q            Log10(Q)             Ln(Q)
 Total Bot       0.212085D-02         -2.673490         -6.155938
 Total V=0       0.460835D+10          9.663545         22.251136
 Vib (Bot)       0.462908D-12        -12.334505        -28.401247
 Vib (V=0)       0.100584D+01          0.002530          0.005826
 Electronic      0.100000D+01          0.000000          0.000000
 Translational   0.646197D+07          6.810365         15.681445
 Rotational      0.709006D+03          2.850650          6.563864
 ***** Axes restored to original set *****
 -------------------------------------------------------------------
 Center     Atomic                   Forces (Hartrees/Bohr)
 Number     Number              X              Y              Z
 -------------------------------------------------------------------
      1        6           0.000000000   -0.000000000    0.000137007
      2        1          -0.000000000    0.000058565    0.000041517
      3        1          -0.000000000   -0.000058565    0.000041517
      4        8           0.000000000   -0.000000000   -0.000220042
 -------------------------------------------------------------------
 Cartesian Forces:  Max     0.000220042 RMS     0.000080362
 FormGI is forming the generalized inverse of G from B-inverse, IUseBI=4.

 GradGradGradGradGradGradGradGradGradGradGradGradGradGradGradGradGradGrad
 Berny optimization.
 Internal  Forces:  Max     0.000220042 RMS     0.000091603
 Search for a local minimum.
 Step number   1 out of a maximum of    2
 All quantities printed in internal units (Hartrees-Bohrs-Radians)
 Second derivative matrix not updated -- analytic derivatives used.
 The second derivative matrix:
                          R1        R2        R3        A1        A2
           R1           0.30701
           R2           0.00690   0.30701
           R3           0.03801   0.03801   0.90086
           A1           0.00917   0.00917  -0.03592   0.08958
           A2           0.00069  -0.00986   0.01796  -0.04479   0.11896
           A3          -0.00986   0.00069   0.01796  -0.04479  -0.07417
           D1          -0.00000   0.00000  -0.00000  -0.00000   0.00000
                          A3        D1
           A3           0.11896
           D1          -0.00000   0.06121
 ITU=  0
     Eigenvalues ---    0.06121   0.12986   0.19210   0.30114   0.31120
     Eigenvalues ---    0.90806
 Angle between quadratic step and forces=  26.67 degrees.
 Linear search not attempted -- first point.
 Iteration  1 RMS(Cart)=  0.00013758 RMS(Int)=  0.00000000
 Iteration  2 RMS(Cart)=  0.00000000 RMS(Int)=  0.00000000
 ClnCor:  largest displacement from symmetrization is 1.33D-12 for atom     1.
 Variable       Old X    -DE/DX   Delta X   Delta X   Delta X     New X
                                 (Linear)    (Quad)   (Total)
    R1        2.09863  -0.00007   0.00000  -0.00020  -0.00020   2.09843
    R2        2.09863  -0.00007   0.00000  -0.00020  -0.00020   2.09843
    R3        2.28014  -0.00022   0.00000  -0.00023  -0.00023   2.27991
    A1        2.01135   0.00001   0.00000   0.00001   0.00001   2.01135
    A2        2.13592  -0.00000   0.00000  -0.00000  -0.00000   2.13592
    A3        2.13592  -0.00000   0.00000  -0.00000  -0.00000   2.13592
    D1        3.14159   0.00000   0.00000   0.00000   0.00000   3.14159
         Item               Value     Threshold  Converged?
 Maximum Force            0.000220     0.000450     YES
 RMS     Force            0.000092     0.000300     YES
 Maximum Displacement     0.000226     0.001800     YES
 RMS     Displacement     0.000138     0.001200     YES
 Predicted change in Energy=-3.941236D-08
 Optimization completed.
    -- Stationary point found.
                           ----------------------------
                           !   Optimized Parameters   !
                           ! (Angstroms and Degrees)  !
 --------------------------                            --------------------------
 ! Name  Definition              Value          Derivative Info.                !
 --------------------------------------------------------------------------------
 ! R1    R(1,2)                  1.1105         -DE/DX =   -0.0001              !
 ! R2    R(1,3)                  1.1105         -DE/DX =   -0.0001              !
 ! R3    R(1,4)                  1.2066         -DE/DX =   -0.0002              !
 ! A1    A(2,1,3)              115.2416         -DE/DX =    0.0                 !
 ! A2    A(2,1,4)              122.3792         -DE/DX =    0.0                 !
 ! A3    A(3,1,4)              122.3792         -DE/DX =    0.0                 !
 ! D1    D(2,1,4,3)            180.0            -DE/DX =    0.0                 !
 --------------------------------------------------------------------------------
 GradGradGradGradGradGradGradGradGradGradGradGradGradGradGradGradGradGrad


 ----------------------------------------------------------------------

 Electric dipole moment (input orientation):
 (Debye = 10**-18 statcoulomb cm , SI units = C m)
                  (au)            (Debye)         (10**-30 SI)
   Tot        0.860333D+00      0.218675D+01      0.729421D+01
   x          0.000000D+00      0.000000D+00      0.000000D+00
   y          0.000000D+00      0.000000D+00      0.000000D+00
   z         -0.860333D+00     -0.218675D+01     -0.729421D+01

 Dipole polarizability, Alpha (input orientation).
 (esu units = cm**3 , SI units = C**2 m**2 J**-1)
 Alpha(0;0):
               (au)            (10**-24 esu)      (10**-40 SI)
   iso        0.130857D+02      0.193910D+01      0.215753D+01
   aniso      0.101698D+02      0.150701D+01      0.167678D+01
   xx         0.676255D+01      0.100211D+01      0.111499D+01
   yx         0.000000D+00      0.000000D+00      0.000000D+00
   yy         0.141285D+02      0.209363D+01      0.232948D+01
   zx         0.000000D+00      0.000000D+00      0.000000D+00
   zy         0.000000D+00      0.000000D+00      0.000000D+00
   zz         0.183659D+02      0.272155D+01      0.302813D+01

 ----------------------------------------------------------------------

 Dipole orientation:
     6          0.00000000          0.00000000          0.98174007
     1         -0.00000000          1.77233950          2.10559873
     1          0.00000000         -1.77233950          2.10559873
     8          0.00000000          0.00000000         -1.29840096

 Electric dipole moment (dipole orientation):
 (Debye = 10**-18 statcoulomb cm , SI units = C m)
                  (au)            (Debye)         (10**-30 SI)
   Tot        0.860333D+00      0.218675D+01      0.729421D+01
   x          0.000000D+00      0.000000D+00      0.000000D+00
   y          0.000000D+00      0.000000D+00      0.000000D+00
   z          0.860333D+00      0.218675D+01      0.729421D+01

 Dipole polarizability, Alpha (dipole orientation).
 (esu units = cm**3 , SI units = C**2 m**2 J**-1)
 Alpha(0;0):
               (au)            (10**-24 esu)      (10**-40 SI)
   iso        0.130857D+02      0.193910D+01      0.215753D+01
   aniso      0.101698D+02      0.150701D+01      0.167678D+01
   xx         0.676255D+01      0.100211D+01      0.111499D+01
   yx         0.000000D+00      0.000000D+00      0.000000D+00
   yy         0.141285D+02      0.209363D+01      0.232948D+01
   zx         0.000000D+00      0.000000D+00      0.000000D+00
   zy         0.000000D+00      0.000000D+00      0.000000D+00
   zz         0.183659D+02      0.272155D+01      0.302813D+01

 ----------------------------------------------------------------------

 Test job not archived.
 1\1\GINC-FEIFEIBOY\Freq\RB3LYP\6-31G(d)\C1H2O1\FLY\09-Oct-2022\0\\#N G
 eom=AllCheck Guess=TCheck SCRF=Check Test GenChk RB3LYP/6-31G(d) Freq\
 \Title Card Required\\0,1\C,0.,0.,-0.5195144695\H,0.,-0.9378816728,-1.
 1142348639\H,0.,0.9378816728,-1.1142348639\O,0.,0.,0.6870841974\\Versi
 on=ES64L-G16RevC.02\State=1-A1\HF=-114.5004727\RMSD=1.070e-09\RMSF=8.0
 36e-05\ZeroPoint=0.0268215\Thermal=0.029688\ETot=-114.4707847\HTot=-11
 4.4698405\GTot=-114.4946604\Dipole=0.,0.,-0.8603334\DipoleDeriv=0.1829
 148,0.,0.,0.,0.8703067,0.,0.,0.,1.0008034,0.065108,0.,0.,0.,-0.2218767
 ,-0.1139101,0.,-0.1090171,-0.0688374,0.065108,0.,0.,0.,-0.2218767,0.11
 39101,0.,0.1090171,-0.0688374,-0.3131307,0.,0.,0.,-0.4265534,0.,0.,0.,
 -0.8631286\Polar=6.7625543,0.,14.1285163,0.,0.,18.3659211\Quadrupole=0
 .1550301,0.0783194,-0.2333496,0.,0.,0.\PG=C02V [C2(C1O1),SGV(H2)]\NIma
 g=0\\0.17389005,0.,0.58938414,0.,0.,1.01965052,-0.05822141,0.,0.,0.019
 52526,0.,-0.23979276,-0.07662380,0.,0.24204198,0.,-0.08145849,-0.10143
 308,0.,0.10649572,0.13268967,-0.05822141,0.,0.,0.01948786,0.,0.,0.0195
 2526,0.,-0.23979276,0.07662380,0.,-0.01995342,0.01152455,0.,0.24204198
 ,0.,0.08145849,-0.10143308,0.,-0.01152455,0.01077978,0.,-0.10649572,0.
 13268967,-0.05744722,0.,0.,0.01920830,0.,0.,0.01920830,0.,0.,0.0190306
 3,0.,-0.10979862,0.,0.,0.01770420,-0.03656178,0.,0.01770420,0.03656178
 ,0.,0.07439022,0.,0.,-0.81678435,0.,-0.01834736,-0.04203637,0.,0.01834
 736,-0.04203637,0.,0.,0.90085709\\0.,0.,-0.00013701,0.,-0.00005857,-0.
 00004152,0.,0.00005857,-0.00004152,0.,0.,0.00022004\\\@


 REPARTEE - WHAT YOU THINK OF AFTER YOU BECOME A DEPARTEE.
 Job cpu time:       0 days  0 hours  0 minutes  2.4 seconds.
 Elapsed time:       0 days  0 hours  0 minutes  2.3 seconds.
 File lengths (MBytes):  RWF=      6 Int=      0 D2E=      0 Chk=      1 Scr=      1
 Normal termination of Gaussian 16 at Sun Oct  9 10:47:58 2022.
